<?xml version="1.0" encoding="ISO-8859-1"?>
<modeling>
 <generator>
  <i name="program" type="string">vasp </i>
  <i name="version" type="string">5.4.4.18Apr17-6-g9f103f2a35  </i>
  <i name="subversion" type="string">(build Feb 28 2019 12:03:04) complex            parallel </i>
  <i name="platform" type="string">LinuxIFC </i>
  <i name="date" type="string">2020 12 21 </i>
  <i name="time" type="string">15:42:37 </i>
 </generator>
 <incar>
  <i type="string" name="PREC">normal</i>
  <i type="string" name="ALGO"> F</i>
  <i type="int" name="IBRION">     2</i>
  <i type="int" name="NSW">     3</i>
  <i type="int" name="ISIF">     3</i>
  <i type="int" name="ISYM">     0</i>
  <i name="ENCUT">    250.00000000</i>
  <i type="string" name="LREAL"> Auto</i>
  <i type="int" name="ISMEAR">     0</i>
  <i name="SIGMA">      0.10000000</i>
  <v type="int" name="KPOINT_BSE">    -1     0     0     0</v>
 </incar>
 <structure name="primitive_cell" >
  <crystal>
   <varray name="basis" >
    <v>      12.74965600       0.00000000       0.00000000 </v>
    <v>       0.00000000      12.74965600       0.00000000 </v>
    <v>       0.00000000       0.00000000      12.74965600 </v>
   </varray>
   <i name="volume">   2072.50411503 </i>
   <varray name="rec_basis" >
    <v>       0.07843349       0.00000000       0.00000000 </v>
    <v>       0.00000000       0.07843349       0.00000000 </v>
    <v>       0.00000000       0.00000000       0.07843349 </v>
   </varray>
  </crystal>
  <varray name="positions" >
   <v>       0.00120214       0.00003907      -0.00115882 </v>
   <v>       0.12397582       0.12507769      -0.12504821 </v>
   <v>       0.12395185      -0.12464727      -0.12586136 </v>
   <v>       0.12507588      -0.12367846       0.12417964 </v>
   <v>       0.12377040       0.12483832       0.12568745 </v>
   <v>      -0.12551660      -0.12544953      -0.12448868 </v>
   <v>      -0.12443388       0.12616823      -0.12540188 </v>
   <v>      -0.12508614      -0.12478030       0.12442086 </v>
   <v>      -0.12532701       0.12512739       0.12518096 </v>
   <v>       0.25009277      -0.00015954      -0.00034885 </v>
   <v>      -0.00163918       0.24918017      -0.00006389 </v>
   <v>      -0.00015069       0.00054145      -0.25040134 </v>
   <v>      -0.00020458      -0.24989989      -0.00017117 </v>
   <v>       0.00050029       0.00089977       0.24926048 </v>
   <v>      -0.24929486      -0.00041516       0.00001960 </v>
   <v>       0.25037238       0.00008590      -0.24954326 </v>
   <v>       0.24872341      -0.25014923      -0.00001285 </v>
   <v>      -0.00151429      -0.24990024      -0.24936475 </v>
   <v>       0.24924125       0.25023302      -0.00049316 </v>
   <v>      -0.00021969       0.25043706      -0.24975539 </v>
   <v>      -0.00006565       0.25005077       0.24892593 </v>
   <v>       0.25013585       0.00140307       0.25036436 </v>
   <v>      -0.25024595       0.24919742       0.00066775 </v>
   <v>      -0.24898851      -0.25039045       0.00031988 </v>
   <v>       0.00035398      -0.25064467       0.24972972 </v>
   <v>      -0.25072801       0.00044237      -0.25080712 </v>
   <v>      -0.24973038      -0.00068064       0.25018191 </v>
   <v>       0.37422047      -0.12403775       0.12485575 </v>
   <v>      -0.12488485       0.12361442      -0.37470146 </v>
   <v>       0.37499163       0.12475268      -0.12543713 </v>
   <v>       0.37536376      -0.12578665      -0.12348551 </v>
   <v>       0.12504284       0.12464326      -0.37523178 </v>
   <v>       0.12629897      -0.37380343      -0.12570542 </v>
   <v>       0.12553824      -0.12547234      -0.37519422 </v>
   <v>       0.12445823      -0.37426983       0.12526700 </v>
   <v>       0.12525865       0.37471491       0.12343670 </v>
   <v>       0.12552033       0.37528988      -0.12405310 </v>
   <v>      -0.12559267       0.37429878      -0.12481005 </v>
   <v>       0.37508033       0.12485797       0.12564378 </v>
   <v>      -0.12513845      -0.12391519      -0.37569791 </v>
   <v>       0.12571109      -0.12391968       0.37407432 </v>
   <v>      -0.12359484       0.37482303       0.12493686 </v>
   <v>      -0.12500586      -0.37441610       0.12476929 </v>
   <v>      -0.12511244      -0.37555587      -0.12446383 </v>
   <v>      -0.12460814      -0.12521326       0.37440258 </v>
   <v>      -0.12588014       0.12478962       0.37432926 </v>
   <v>      -0.37459341       0.12453402       0.12538982 </v>
   <v>      -0.37496383      -0.12515650       0.12475331 </v>
   <v>      -0.37578832      -0.12549009      -0.12443569 </v>
   <v>       0.12486124       0.12646888       0.37556563 </v>
   <v>      -0.37617733       0.12472205      -0.12465733 </v>
   <v>       0.24966861       0.25004611      -0.24933705 </v>
   <v>       0.25023579      -0.24998426      -0.24929256 </v>
   <v>       0.25094565       0.24904724       0.24940113 </v>
   <v>      -0.24962315      -0.25016423      -0.24953404 </v>
   <v>      -0.24888661       0.25072433      -0.24981316 </v>
   <v>       0.25078409      -0.24975429       0.24983451 </v>
   <v>      -0.25081870       0.24969390       0.24965247 </v>
   <v>      -0.25015316      -0.25048311       0.25025265 </v>
   <v>       0.00004108       0.00003735      -0.49960445 </v>
   <v>      -0.00013955       0.49897415       0.00123013 </v>
   <v>      -0.49919070      -0.00006475       0.00072620 </v>
   <v>       0.12516297       0.37542376      -0.37341947 </v>
   <v>      -0.12488005      -0.37408281      -0.37492794 </v>
   <v>       0.37563771       0.12487938      -0.37518491 </v>
   <v>       0.37556181      -0.37431926       0.12377329 </v>
   <v>       0.37592952      -0.12484446      -0.37524945 </v>
   <v>       0.37550105       0.37418966       0.12483170 </v>
   <v>       0.37548786      -0.37516287      -0.12432311 </v>
   <v>      -0.37418727       0.12530921      -0.37480331 </v>
   <v>       0.37578352       0.37514990      -0.12455077 </v>
   <v>       0.12521970      -0.37473052       0.37356227 </v>
   <v>       0.12443766       0.37524622       0.37340302 </v>
   <v>      -0.37414607       0.37438998      -0.12529380 </v>
   <v>       0.12530092      -0.37568251      -0.37578150 </v>
   <v>       0.37425442      -0.12508613       0.37619218 </v>
   <v>      -0.12596896       0.37586344      -0.37530852 </v>
   <v>      -0.37531948      -0.12553686      -0.37526450 </v>
   <v>      -0.37540891      -0.37445319      -0.12547437 </v>
   <v>       0.37572505       0.12406851       0.37552290 </v>
   <v>      -0.12366594       0.37464373       0.37574098 </v>
   <v>      -0.37512789       0.37526996       0.12394023 </v>
   <v>      -0.37489075      -0.12412937       0.37505181 </v>
   <v>      -0.37543455      -0.37503722       0.12520063 </v>
   <v>      -0.12491659      -0.37518799       0.37558140 </v>
   <v>      -0.37440519       0.12334273       0.37664863 </v>
   <v>       0.49879834      -0.25008992       0.00006478 </v>
   <v>       0.24971571       0.00032559      -0.49964170 </v>
   <v>       0.49962353       0.00016000      -0.25059242 </v>
   <v>      -0.00009378       0.25059997      -0.49936372 </v>
   <v>       0.00042556      -0.49972806      -0.24908957 </v>
   <v>      -0.00098249      -0.25041351       0.49993810 </v>
   <v>       0.25009247      -0.49991663       0.00039186 </v>
   <v>      -0.49965659       0.25136957      -0.00113727 </v>
   <v>      -0.24984703       0.49940730       0.00036040 </v>
   <v>       0.00031490       0.49935289       0.25078904 </v>
   <v>      -0.25081870      -0.00007554       0.49926666 </v>
   <v>      -0.49890863      -0.00057952       0.25026665 </v>
   <v>       0.49929804      -0.24973407      -0.24855219 </v>
   <v>       0.25001878      -0.49856338      -0.25010148 </v>
   <v>      -0.24968861       0.49838959      -0.24931900 </v>
   <v>       0.24867956      -0.25057360      -0.49999177 </v>
   <v>       0.25062948       0.24930919      -0.49993532 </v>
   <v>      -0.25006457       0.24849996      -0.49946649 </v>
   <v>      -0.49969254       0.25151482      -0.24967680 </v>
   <v>      -0.49969458      -0.24979344       0.25005855 </v>
   <v>      -0.49938424       0.24882914       0.25052596 </v>
   <v>      -0.24987911      -0.25040184       0.49969769 </v>
   <v>       0.24978145      -0.49992397       0.25054849 </v>
   <v>      -0.25150690       0.49925642       0.24919800 </v>
   <v>       0.37353461       0.37488494      -0.37616215 </v>
   <v>      -0.37343481       0.37468015      -0.37444707 </v>
   <v>       0.37553199      -0.37512099      -0.37515394 </v>
   <v>       0.37497188      -0.37514941       0.37477437 </v>
   <v>      -0.37471868      -0.37544962      -0.37512703 </v>
   <v>      -0.37492823      -0.37468502       0.37446385 </v>
   <v>       0.37610212       0.37568537       0.37542089 </v>
   <v>      -0.37495471       0.37452504       0.37568661 </v>
   <v>       0.49975387      -0.00037693       0.49992345 </v>
   <v>      -0.00063062       0.49945077      -0.49981770 </v>
   <v>       0.49975884      -0.49966962       0.00017898 </v>
   <v>       0.24909844      -0.49857105       0.49954788 </v>
   <v>       0.49962434       0.25034923      -0.49976261 </v>
   <v>       0.49991371      -0.49938992      -0.24958914 </v>
   <v>       0.49983571      -0.24952746       0.49851818 </v>
   <v>      -0.49978775       0.49924117       0.24935216 </v>
   <v>      -0.24970669      -0.49984958       0.49977067 </v>
   <v>       0.49910591      -0.49924294       0.49923228 </v>
  </varray>
 </structure>
 <varray name="primitive_index" >
  <v type="int" >        1 </v>
  <v type="int" >       68 </v>
  <v type="int" >       80 </v>
  <v type="int" >       77 </v>
  <v type="int" >       65 </v>
  <v type="int" >      128 </v>
  <v type="int" >      116 </v>
  <v type="int" >      125 </v>
  <v type="int" >      113 </v>
  <v type="int" >       17 </v>
  <v type="int" >        5 </v>
  <v type="int" >        4 </v>
  <v type="int" >       13 </v>
  <v type="int" >        2 </v>
  <v type="int" >       49 </v>
  <v type="int" >       20 </v>
  <v type="int" >       29 </v>
  <v type="int" >       16 </v>
  <v type="int" >       21 </v>
  <v type="int" >        8 </v>
  <v type="int" >        6 </v>
  <v type="int" >       18 </v>
  <v type="int" >       53 </v>
  <v type="int" >       61 </v>
  <v type="int" >       14 </v>
  <v type="int" >       52 </v>
  <v type="int" >       50 </v>
  <v type="int" >       93 </v>
  <v type="int" >      115 </v>
  <v type="int" >       84 </v>
  <v type="int" >       96 </v>
  <v type="int" >       67 </v>
  <v type="int" >       76 </v>
  <v type="int" >       79 </v>
  <v type="int" >       73 </v>
  <v type="int" >       69 </v>
  <v type="int" >       72 </v>
  <v type="int" >      120 </v>
  <v type="int" >       81 </v>
  <v type="int" >      127 </v>
  <v type="int" >       78 </v>
  <v type="int" >      117 </v>
  <v type="int" >      121 </v>
  <v type="int" >      124 </v>
  <v type="int" >      126 </v>
  <v type="int" >      114 </v>
  <v type="int" >       97 </v>
  <v type="int" >      109 </v>
  <v type="int" >      112 </v>
  <v type="int" >       66 </v>
  <v type="int" >      100 </v>
  <v type="int" >       24 </v>
  <v type="int" >       32 </v>
  <v type="int" >       22 </v>
  <v type="int" >       64 </v>
  <v type="int" >       56 </v>
  <v type="int" >       30 </v>
  <v type="int" >       54 </v>
  <v type="int" >       62 </v>
  <v type="int" >        3 </v>
  <v type="int" >        9 </v>
  <v type="int" >       33 </v>
  <v type="int" >       71 </v>
  <v type="int" >      123 </v>
  <v type="int" >       83 </v>
  <v type="int" >       89 </v>
  <v type="int" >       95 </v>
  <v type="int" >       85 </v>
  <v type="int" >       92 </v>
  <v type="int" >       99 </v>
  <v type="int" >       88 </v>
  <v type="int" >       74 </v>
  <v type="int" >       70 </v>
  <v type="int" >      104 </v>
  <v type="int" >       75 </v>
  <v type="int" >       94 </v>
  <v type="int" >      119 </v>
  <v type="int" >      111 </v>
  <v type="int" >      108 </v>
  <v type="int" >       82 </v>
  <v type="int" >      118 </v>
  <v type="int" >      101 </v>
  <v type="int" >      110 </v>
  <v type="int" >      105 </v>
  <v type="int" >      122 </v>
  <v type="int" >       98 </v>
  <v type="int" >       45 </v>
  <v type="int" >       19 </v>
  <v type="int" >       36 </v>
  <v type="int" >        7 </v>
  <v type="int" >       12 </v>
  <v type="int" >       15 </v>
  <v type="int" >       25 </v>
  <v type="int" >       37 </v>
  <v type="int" >       57 </v>
  <v type="int" >       10 </v>
  <v type="int" >       51 </v>
  <v type="int" >       34 </v>
  <v type="int" >       48 </v>
  <v type="int" >       28 </v>
  <v type="int" >       60 </v>
  <v type="int" >       31 </v>
  <v type="int" >       23 </v>
  <v type="int" >       55 </v>
  <v type="int" >       40 </v>
  <v type="int" >       46 </v>
  <v type="int" >       38 </v>
  <v type="int" >       63 </v>
  <v type="int" >       26 </v>
  <v type="int" >       58 </v>
  <v type="int" >       87 </v>
  <v type="int" >      103 </v>
  <v type="int" >       91 </v>
  <v type="int" >       90 </v>
  <v type="int" >      107 </v>
  <v type="int" >      106 </v>
  <v type="int" >       86 </v>
  <v type="int" >      102 </v>
  <v type="int" >       35 </v>
  <v type="int" >       11 </v>
  <v type="int" >       41 </v>
  <v type="int" >       27 </v>
  <v type="int" >       39 </v>
  <v type="int" >       44 </v>
  <v type="int" >       47 </v>
  <v type="int" >       42 </v>
  <v type="int" >       59 </v>
  <v type="int" >       43 </v>
 </varray>
 <kpoints>
  <generation param="Gamma">
   <v type="int" name="divisions">       1        1        1 </v>
   <v name="usershift">      0.00000000       0.00000000       0.00000000 </v>
   <v name="genvec1">      1.00000000       0.00000000       0.00000000 </v>
   <v name="genvec2">      0.00000000       1.00000000       0.00000000 </v>
   <v name="genvec3">      0.00000000       0.00000000       1.00000000 </v>
   <v name="shift">      0.00000000       0.00000000       0.00000000 </v>
  </generation>
  <varray name="kpointlist" >
   <v>       0.00000000       0.00000000       0.00000000 </v>
  </varray>
  <varray name="weights" >
   <v>       1.00000000 </v>
  </varray>
 </kpoints>
 <parameters>
  <separator name="general" >
   <i type="string" name="SYSTEM">unknown system</i>
   <i type="logical" name="LCOMPAT"> F  </i>
  </separator>
  <separator name="electronic" >
   <i type="string" name="PREC">normal</i>
   <i name="ENMAX">    250.00000000</i>
   <i name="ENAUG">    373.43800000</i>
   <i name="EDIFF">      0.00010000</i>
   <i type="int" name="IALGO">    68</i>
   <i type="int" name="IWAVPR">    11</i>
   <i type="int" name="NBANDS">   460</i>
   <i name="NELECT">    768.00000000</i>
   <i type="int" name="TURBO">     0</i>
   <i type="int" name="IRESTART">     0</i>
   <i type="int" name="NREBOOT">     0</i>
   <i type="int" name="NMIN">     0</i>
   <i name="EREF">      0.00000000</i>
   <separator name="electronic smearing" >
    <i type="int" name="ISMEAR">     0</i>
    <i name="SIGMA">      0.10000000</i>
    <i name="KSPACING">      0.50000000</i>
    <i type="logical" name="KGAMMA"> T  </i>
   </separator>
   <separator name="electronic projectors" >
    <i type="logical" name="LREAL"> T  </i>
    <v name="ROPT">     -0.00050000</v>
    <i type="int" name="LMAXPAW">  -100</i>
    <i type="int" name="LMAXMIX">     2</i>
    <i type="logical" name="NLSPLINE"> F  </i>
   </separator>
   <separator name="electronic startup" >
    <i type="int" name="ISTART">     1</i>
    <i type="int" name="ICHARG">     0</i>
    <i type="int" name="INIWAV">     1</i>
   </separator>
   <separator name="electronic spin" >
    <i type="int" name="ISPIN">     1</i>
    <i type="logical" name="LNONCOLLINEAR"> F  </i>
    <v name="MAGMOM">      1.00000000      1.00000000      1.00000000      1.00000000      1.00000000      1.00000000      1.00000000      1.00000000      1.00000000      1.00000000      1.00000000      1.00000000      1.00000000      1.00000000      1.00000000      1.00000000      1.00000000      1.00000000      1.00000000      1.00000000
      1.00000000      1.00000000      1.00000000      1.00000000      1.00000000      1.00000000      1.00000000      1.00000000      1.00000000      1.00000000      1.00000000      1.00000000      1.00000000      1.00000000      1.00000000      1.00000000      1.00000000      1.00000000      1.00000000      1.00000000
      1.00000000      1.00000000      1.00000000      1.00000000      1.00000000      1.00000000      1.00000000      1.00000000      1.00000000      1.00000000      1.00000000      1.00000000      1.00000000      1.00000000      1.00000000      1.00000000      1.00000000      1.00000000      1.00000000      1.00000000
      1.00000000      1.00000000      1.00000000      1.00000000      1.00000000      1.00000000      1.00000000      1.00000000      1.00000000      1.00000000      1.00000000      1.00000000      1.00000000      1.00000000      1.00000000      1.00000000      1.00000000      1.00000000      1.00000000      1.00000000
      1.00000000      1.00000000      1.00000000      1.00000000      1.00000000      1.00000000      1.00000000      1.00000000      1.00000000      1.00000000      1.00000000      1.00000000      1.00000000      1.00000000      1.00000000      1.00000000      1.00000000      1.00000000      1.00000000      1.00000000
      1.00000000      1.00000000      1.00000000      1.00000000      1.00000000      1.00000000      1.00000000      1.00000000      1.00000000      1.00000000      1.00000000      1.00000000      1.00000000      1.00000000      1.00000000      1.00000000      1.00000000      1.00000000      1.00000000      1.00000000
      1.00000000      1.00000000      1.00000000      1.00000000      1.00000000      1.00000000      1.00000000      1.00000000</v>
    <i name="NUPDOWN">     -1.00000000</i>
    <i type="logical" name="LSORBIT"> F  </i>
    <v name="SAXIS">      0.00000000      0.00000000      1.00000000</v>
    <i type="logical" name="LSPIRAL"> F  </i>
    <v name="QSPIRAL">      0.00000000      0.00000000      0.00000000</v>
    <i type="logical" name="LZEROZ"> F  </i>
   </separator>
   <separator name="electronic exchange-correlation" >
    <i type="logical" name="LASPH"> F  </i>
    <i type="logical" name="LMETAGGA"> F  </i>
   </separator>
   <separator name="electronic convergence" >
    <i type="int" name="NELM">    60</i>
    <i type="int" name="NELMDL">     0</i>
    <i type="int" name="NELMIN">     2</i>
    <i name="ENINI">    250.00000000</i>
    <separator name="electronic convergence detail" >
     <i type="logical" name="LDIAG"> T  </i>
     <i type="logical" name="LSUBROT"> F  </i>
     <i name="WEIMIN">      0.00100000</i>
     <i name="EBREAK">      0.00000005</i>
     <i name="DEPER">      0.30000000</i>
     <i type="int" name="NRMM">     4</i>
     <i name="TIME">      0.40000000</i>
    </separator>
   </separator>
   <separator name="electronic mixer" >
    <i name="AMIX">      0.40000000</i>
    <i name="BMIX">      1.00000000</i>
    <i name="AMIN">      0.10000000</i>
    <i name="AMIX_MAG">      1.60000000</i>
    <i name="BMIX_MAG">      1.00000000</i>
    <separator name="electronic mixer details" >
     <i type="int" name="IMIX">     4</i>
     <i type="logical" name="MIXFIRST"> F  </i>
     <i type="int" name="MAXMIX">   -45</i>
     <i name="WC">    100.00000000</i>
     <i type="int" name="INIMIX">     1</i>
     <i type="int" name="MIXPRE">     1</i>
     <i type="int" name="MREMOVE">     5</i>
    </separator>
   </separator>
   <separator name="electronic dipolcorrection" >
    <i type="logical" name="LDIPOL"> F  </i>
    <i type="logical" name="LMONO"> F  </i>
    <i type="int" name="IDIPOL">     0</i>
    <i name="EPSILON">      1.00000000</i>
    <v name="DIPOL">   -100.00000000   -100.00000000   -100.00000000</v>
    <i name="EFIELD">      0.00000000</i>
   </separator>
  </separator>
  <separator name="grids" >
   <i type="int" name="NGX">    50</i>
   <i type="int" name="NGY">    50</i>
   <i type="int" name="NGZ">    50</i>
   <i type="int" name="NGXF">   100</i>
   <i type="int" name="NGYF">   100</i>
   <i type="int" name="NGZF">   100</i>
   <i type="logical" name="ADDGRID"> F  </i>
  </separator>
  <separator name="ionic" >
   <i type="int" name="NSW">     3</i>
   <i type="int" name="IBRION">     2</i>
   <i type="int" name="MDALGO">     0</i>
   <i type="int" name="ISIF">     3</i>
   <i name="PSTRESS">      0.00000000</i>
   <i name="EDIFFG">      0.00100000</i>
   <i type="int" name="NFREE">     1</i>
   <i name="POTIM">      0.50000000</i>
   <i name="SMASS">     -3.00000000</i>
   <i name="SCALEE">      1.00000000</i>
  </separator>
  <separator name="ionic md" >
   <i name="TEBEG">      0.00010000</i>
   <i name="TEEND">      0.00010000</i>
   <i type="int" name="NBLOCK">     1</i>
   <i type="int" name="KBLOCK">     3</i>
   <i type="int" name="NPACO">   256</i>
   <i name="APACO">     16.00000000</i>
  </separator>
  <separator name="symmetry" >
   <i type="int" name="ISYM">     0</i>
   <i name="SYMPREC">      0.00001000</i>
  </separator>
  <separator name="dos" >
   <i type="int" name="LORBIT">     0</i>
   <v name="RWIGS">     -1.00000000</v>
   <i type="int" name="NEDOS">   301</i>
   <i name="EMIN">     10.00000000</i>
   <i name="EMAX">    -10.00000000</i>
   <i name="EFERMI">      0.00000000</i>
  </separator>
  <separator name="writing" >
   <i type="int" name="NWRITE">     2</i>
   <i type="logical" name="LWAVE"> T  </i>
   <i type="logical" name="LDOWNSAMPLE"> F  </i>
   <i type="logical" name="LCHARG"> T  </i>
   <i type="logical" name="LPARD"> F  </i>
   <i type="logical" name="LVTOT"> F  </i>
   <i type="logical" name="LVHAR"> F  </i>
   <i type="logical" name="LELF"> F  </i>
   <i type="logical" name="LOPTICS"> F  </i>
   <v name="STM">      0.00000000      0.00000000      0.00000000      0.00000000      0.00000000      0.00000000      0.00000000</v>
  </separator>
  <separator name="performance" >
   <i type="int" name="NPAR">     1</i>
   <i type="int" name="NSIM">     4</i>
   <i type="int" name="NBLK">    -1</i>
   <i type="logical" name="LPLANE"> T  </i>
   <i type="logical" name="LSCALAPACK"> F  </i>
   <i type="logical" name="LSCAAWARE"> F  </i>
   <i type="logical" name="LSCALU"> F  </i>
   <i type="logical" name="LASYNC"> F  </i>
   <i type="logical" name="LORBITALREAL"> F  </i>
  </separator>
  <separator name="miscellaneous" >
   <i type="int" name="IDIOT">     3</i>
   <i type="int" name="ISPECIAL">     0</i>
   <i type="logical" name="LMUSIC"> F  </i>
   <v name="POMASS">    183.85000000</v>
   <v name="DARWINR">      0.00000000</v>
   <v name="DARWINV">      1.00000000</v>
   <i type="logical" name="LCORR"> T  </i>
  </separator>
  <i type="logical" name="GGA_COMPAT"> T  </i>
  <i type="logical" name="LBERRY"> F  </i>
  <i type="int" name="ICORELEVEL">     0</i>
  <i type="logical" name="LDAU"> F  </i>
  <i type="int" name="I_CONSTRAINED_M">     0</i>
  <separator name="electronic exchange-correlation" >
   <i type="string" name="GGA">--</i>
   <i type="int" name="VOSKOWN">     0</i>
   <i type="logical" name="LHFCALC"> F  </i>
   <i type="string" name="PRECFOCK"></i>
   <i type="logical" name="LSYMGRAD"> F  </i>
   <i type="logical" name="LHFONE"> F  </i>
   <i type="logical" name="LRHFCALC"> F  </i>
   <i type="logical" name="LTHOMAS"> F  </i>
   <i type="logical" name="LMODELHF"> F  </i>
   <i name="ENCUT4O">     -1.00000000</i>
   <i type="int" name="EXXOEP">     0</i>
   <i type="int" name="FOURORBIT">     0</i>
   <i name="AEXX">      0.00000000</i>
   <i name="HFALPHA">      0.00000000</i>
   <i name="MCALPHA">      0.00000000</i>
   <i name="ALDAX">      1.00000000</i>
   <i name="AGGAX">      1.00000000</i>
   <i name="ALDAC">      1.00000000</i>
   <i name="AGGAC">      1.00000000</i>
   <i type="int" name="NKREDX">     1</i>
   <i type="int" name="NKREDY">     1</i>
   <i type="int" name="NKREDZ">     1</i>
   <i type="logical" name="SHIFTRED"> F  </i>
   <i type="logical" name="ODDONLY"> F  </i>
   <i type="logical" name="EVENONLY"> F  </i>
   <i type="int" name="LMAXFOCK">     0</i>
   <i type="int" name="NMAXFOCKAE">     0</i>
   <i type="logical" name="LFOCKAEDFT"> F  </i>
   <i name="HFSCREEN">      0.00000000</i>
   <i name="HFSCREENC">      0.00000000</i>
   <i type="int" name="NBANDSGWLOW">     0</i>
  </separator>
  <separator name="vdW DFT" >
   <i type="logical" name="LUSE_VDW"> F  </i>
   <i name="Zab_VDW">     -0.84910000</i>
   <i name="PARAM1">      0.12340000</i>
   <i name="PARAM2">      1.00000000</i>
   <i name="PARAM3">      0.00000000</i>
  </separator>
  <separator name="model GW" >
   <i type="int" name="MODEL_GW">     0</i>
   <i name="MODEL_EPS0">      9.71486304</i>
   <i name="MODEL_ALPHA">      1.00000000</i>
  </separator>
  <separator name="linear response parameters" >
   <i type="logical" name="LEPSILON"> F  </i>
   <i type="logical" name="LRPA"> F  </i>
   <i type="logical" name="LNABLA"> F  </i>
   <i type="logical" name="LVEL"> F  </i>
   <i type="int" name="KINTER">     0</i>
   <i name="CSHIFT">      0.10000000</i>
   <i name="OMEGAMAX">     -1.00000000</i>
   <i name="DEG_THRESHOLD">      0.00200000</i>
   <i name="RTIME">     -0.10000000</i>
   <i name="WPLASMAI">      0.00000000</i>
   <v name="DFIELD">      0.00000000      0.00000000      0.00000000</v>
   <v name="WPLASMA">      0.00000000      0.00000000      0.00000000      0.00000000      0.00000000      0.00000000      0.00000000      0.00000000      0.00000000</v>
  </separator>
  <separator name="orbital magnetization" >
   <i type="logical" name="NUCIND"> F  </i>
   <v name="MAGPOS">      0.00000000      0.00000000      0.00000000</v>
   <i type="logical" name="LNICSALL"> T  </i>
   <i type="logical" name="ORBITALMAG"> F  </i>
   <i type="logical" name="LMAGBLOCH"> F  </i>
   <i type="logical" name="LCHIMAG"> F  </i>
   <i type="logical" name="LGAUGE"> T  </i>
   <i type="int" name="MAGATOM">     0</i>
   <v name="MAGDIPOL">      0.00000000      0.00000000      0.00000000</v>
   <v name="AVECCONST">      0.00000000      0.00000000      0.00000000</v>
  </separator>
  <separator name="response functions" >
   <i type="logical" name="LADDER"> F  </i>
   <i type="logical" name="LRPAFORCE"> F  </i>
   <i type="logical" name="LFXC"> F  </i>
   <i type="logical" name="LHARTREE"> T  </i>
   <i type="int" name="IBSE">     0</i>
   <v type="int" name="KPOINT">    -1     0     0     0</v>
   <i type="logical" name="LTCTE"> F  </i>
   <i type="logical" name="LTETE"> F  </i>
   <i type="logical" name="LTRIPLET"> F  </i>
   <i type="logical" name="LFXCEPS"> F  </i>
   <i type="logical" name="LFXHEG"> F  </i>
   <i type="int" name="NATURALO">     2</i>
   <i type="logical" name="L2ORDER"> F  </i>
   <i type="logical" name="LMP2LT"> F  </i>
   <i type="logical" name="LUSEW"> F  </i>
   <i name="ENCUTGW">     -2.00000000</i>
   <i name="ENCUTGWSOFT">     -2.00000000</i>
   <i name="ENCUTLF">     -1.00000000</i>
   <i type="int" name="LMAXMP2">    -1</i>
   <i name="SCISSOR">      0.00000000</i>
   <i type="int" name="NOMEGA">     0</i>
   <i type="int" name="NOMEGAR">     0</i>
   <i type="int" name="NBANDSGW">    -1</i>
   <i type="int" name="NBANDSO">    -1</i>
   <i type="int" name="NBANDSV">    -1</i>
   <i type="int" name="NELM">     1</i>
   <i type="int" name="NELMHF">     1</i>
   <i type="int" name="DIM">     3</i>
   <i type="int" name="ANTIRES">     0</i>
   <i name="OMEGAMAX">    -30.00000000</i>
   <i name="OMEGAMIN">    -30.00000000</i>
   <i name="OMEGATL">   -200.00000000</i>
   <i type="int" name="OMEGAGRID">   140</i>
   <i name="CSHIFT">     -0.10000000</i>
   <i type="logical" name="SELFENERGY"> F  </i>
   <i type="logical" name="LSPECTRAL"> F  </i>
   <i type="logical" name="LSPECTRALGW"> F  </i>
   <i type="logical" name="LSINGLES"> F  </i>
   <i type="logical" name="LFERMIGW"> F  </i>
   <i type="logical" name="ODDONLYGW"> F  </i>
   <i type="logical" name="EVENONLYGW"> F  </i>
   <i type="int" name="NKREDLFX">     1</i>
   <i type="int" name="NKREDLFY">     1</i>
   <i type="int" name="NKREDLFZ">     1</i>
   <i type="int" name="MAXMEM">  2800</i>
   <i type="int" name="TELESCOPE">     0</i>
   <i type="int" name="TAUPAR">     1</i>
   <i type="int" name="OMEGAPAR">    -1</i>
   <i name="LAMBDA">      1.00000000</i>
  </separator>
  <separator name="External order field" >
   <i name="OFIELD_KAPPA">      0.00000000</i>
   <v name="OFIELD_K">      0.00000000      0.00000000      0.00000000</v>
   <i name="OFIELD_Q6_NEAR">      0.00000000</i>
   <i name="OFIELD_Q6_FAR">      0.00000000</i>
   <i name="OFIELD_A">      0.00000000</i>
  </separator>
 </parameters>
 <atominfo>
  <atoms>     128 </atoms>
  <types>       1 </types>
  <array name="atoms" >
   <dimension dim="1">ion</dimension>
   <field type="string">element</field>
   <field type="int">atomtype</field>
   <set>
    <rc><c>W </c><c>   1</c></rc>
    <rc><c>W </c><c>   1</c></rc>
    <rc><c>W </c><c>   1</c></rc>
    <rc><c>W </c><c>   1</c></rc>
    <rc><c>W </c><c>   1</c></rc>
    <rc><c>W </c><c>   1</c></rc>
    <rc><c>W </c><c>   1</c></rc>
    <rc><c>W </c><c>   1</c></rc>
    <rc><c>W </c><c>   1</c></rc>
    <rc><c>W </c><c>   1</c></rc>
    <rc><c>W </c><c>   1</c></rc>
    <rc><c>W </c><c>   1</c></rc>
    <rc><c>W </c><c>   1</c></rc>
    <rc><c>W </c><c>   1</c></rc>
    <rc><c>W </c><c>   1</c></rc>
    <rc><c>W </c><c>   1</c></rc>
    <rc><c>W </c><c>   1</c></rc>
    <rc><c>W </c><c>   1</c></rc>
    <rc><c>W </c><c>   1</c></rc>
    <rc><c>W </c><c>   1</c></rc>
    <rc><c>W </c><c>   1</c></rc>
    <rc><c>W </c><c>   1</c></rc>
    <rc><c>W </c><c>   1</c></rc>
    <rc><c>W </c><c>   1</c></rc>
    <rc><c>W </c><c>   1</c></rc>
    <rc><c>W </c><c>   1</c></rc>
    <rc><c>W </c><c>   1</c></rc>
    <rc><c>W </c><c>   1</c></rc>
    <rc><c>W </c><c>   1</c></rc>
    <rc><c>W </c><c>   1</c></rc>
    <rc><c>W </c><c>   1</c></rc>
    <rc><c>W </c><c>   1</c></rc>
    <rc><c>W </c><c>   1</c></rc>
    <rc><c>W </c><c>   1</c></rc>
    <rc><c>W </c><c>   1</c></rc>
    <rc><c>W </c><c>   1</c></rc>
    <rc><c>W </c><c>   1</c></rc>
    <rc><c>W </c><c>   1</c></rc>
    <rc><c>W </c><c>   1</c></rc>
    <rc><c>W </c><c>   1</c></rc>
    <rc><c>W </c><c>   1</c></rc>
    <rc><c>W </c><c>   1</c></rc>
    <rc><c>W </c><c>   1</c></rc>
    <rc><c>W </c><c>   1</c></rc>
    <rc><c>W </c><c>   1</c></rc>
    <rc><c>W </c><c>   1</c></rc>
    <rc><c>W </c><c>   1</c></rc>
    <rc><c>W </c><c>   1</c></rc>
    <rc><c>W </c><c>   1</c></rc>
    <rc><c>W </c><c>   1</c></rc>
    <rc><c>W </c><c>   1</c></rc>
    <rc><c>W </c><c>   1</c></rc>
    <rc><c>W </c><c>   1</c></rc>
    <rc><c>W </c><c>   1</c></rc>
    <rc><c>W </c><c>   1</c></rc>
    <rc><c>W </c><c>   1</c></rc>
    <rc><c>W </c><c>   1</c></rc>
    <rc><c>W </c><c>   1</c></rc>
    <rc><c>W </c><c>   1</c></rc>
    <rc><c>W </c><c>   1</c></rc>
    <rc><c>W </c><c>   1</c></rc>
    <rc><c>W </c><c>   1</c></rc>
    <rc><c>W </c><c>   1</c></rc>
    <rc><c>W </c><c>   1</c></rc>
    <rc><c>W </c><c>   1</c></rc>
    <rc><c>W </c><c>   1</c></rc>
    <rc><c>W </c><c>   1</c></rc>
    <rc><c>W </c><c>   1</c></rc>
    <rc><c>W </c><c>   1</c></rc>
    <rc><c>W </c><c>   1</c></rc>
    <rc><c>W </c><c>   1</c></rc>
    <rc><c>W </c><c>   1</c></rc>
    <rc><c>W </c><c>   1</c></rc>
    <rc><c>W </c><c>   1</c></rc>
    <rc><c>W </c><c>   1</c></rc>
    <rc><c>W </c><c>   1</c></rc>
    <rc><c>W </c><c>   1</c></rc>
    <rc><c>W </c><c>   1</c></rc>
    <rc><c>W </c><c>   1</c></rc>
    <rc><c>W </c><c>   1</c></rc>
    <rc><c>W </c><c>   1</c></rc>
    <rc><c>W </c><c>   1</c></rc>
    <rc><c>W </c><c>   1</c></rc>
    <rc><c>W </c><c>   1</c></rc>
    <rc><c>W </c><c>   1</c></rc>
    <rc><c>W </c><c>   1</c></rc>
    <rc><c>W </c><c>   1</c></rc>
    <rc><c>W </c><c>   1</c></rc>
    <rc><c>W </c><c>   1</c></rc>
    <rc><c>W </c><c>   1</c></rc>
    <rc><c>W </c><c>   1</c></rc>
    <rc><c>W </c><c>   1</c></rc>
    <rc><c>W </c><c>   1</c></rc>
    <rc><c>W </c><c>   1</c></rc>
    <rc><c>W </c><c>   1</c></rc>
    <rc><c>W </c><c>   1</c></rc>
    <rc><c>W </c><c>   1</c></rc>
    <rc><c>W </c><c>   1</c></rc>
    <rc><c>W </c><c>   1</c></rc>
    <rc><c>W </c><c>   1</c></rc>
    <rc><c>W </c><c>   1</c></rc>
    <rc><c>W </c><c>   1</c></rc>
    <rc><c>W </c><c>   1</c></rc>
    <rc><c>W </c><c>   1</c></rc>
    <rc><c>W </c><c>   1</c></rc>
    <rc><c>W </c><c>   1</c></rc>
    <rc><c>W </c><c>   1</c></rc>
    <rc><c>W </c><c>   1</c></rc>
    <rc><c>W </c><c>   1</c></rc>
    <rc><c>W </c><c>   1</c></rc>
    <rc><c>W </c><c>   1</c></rc>
    <rc><c>W </c><c>   1</c></rc>
    <rc><c>W </c><c>   1</c></rc>
    <rc><c>W </c><c>   1</c></rc>
    <rc><c>W </c><c>   1</c></rc>
    <rc><c>W </c><c>   1</c></rc>
    <rc><c>W </c><c>   1</c></rc>
    <rc><c>W </c><c>   1</c></rc>
    <rc><c>W </c><c>   1</c></rc>
    <rc><c>W </c><c>   1</c></rc>
    <rc><c>W </c><c>   1</c></rc>
    <rc><c>W </c><c>   1</c></rc>
    <rc><c>W </c><c>   1</c></rc>
    <rc><c>W </c><c>   1</c></rc>
    <rc><c>W </c><c>   1</c></rc>
    <rc><c>W </c><c>   1</c></rc>
    <rc><c>W </c><c>   1</c></rc>
    <rc><c>W </c><c>   1</c></rc>
   </set>
  </array>
  <array name="atomtypes" >
   <dimension dim="1">type</dimension>
   <field type="int">atomspertype</field>
   <field type="string">element</field>
   <field>mass</field>
   <field>valence</field>
   <field type="string">pseudopotential</field>
   <set>
    <rc><c> 128</c><c>W </c><c>    183.85000000</c><c>      6.00000000</c><c>  PAW_PBE W 08Apr2002                   </c></rc>
   </set>
  </array>
 </atominfo>
 <structure name="initialpos" >
  <crystal>
   <varray name="basis" >
    <v>      12.74965600       0.00000000       0.00000000 </v>
    <v>       0.00000000      12.74965600       0.00000000 </v>
    <v>       0.00000000       0.00000000      12.74965600 </v>
   </varray>
   <i name="volume">   2072.50411503 </i>
   <varray name="rec_basis" >
    <v>       0.07843349       0.00000000       0.00000000 </v>
    <v>       0.00000000       0.07843349       0.00000000 </v>
    <v>       0.00000000       0.00000000       0.07843349 </v>
   </varray>
  </crystal>
  <varray name="positions" >
   <v>       0.00120214       0.00003907       0.99884118 </v>
   <v>       0.00050029       0.00089977       0.24926048 </v>
   <v>       0.00004108       0.00003735       0.50039555 </v>
   <v>       0.99984931       0.00054145       0.74959866 </v>
   <v>       0.99836082       0.24918017       0.99993611 </v>
   <v>       0.99993435       0.25005077       0.24892593 </v>
   <v>       0.99990622       0.25059997       0.50063628 </v>
   <v>       0.99978031       0.25043706       0.75024461 </v>
   <v>       0.99986045       0.49897415       0.00123013 </v>
   <v>       0.00031490       0.49935289       0.25078904 </v>
   <v>       0.99936938       0.49945077       0.50018230 </v>
   <v>       0.00042556       0.50027194       0.75091043 </v>
   <v>       0.99979542       0.75010011       0.99982883 </v>
   <v>       0.00035398       0.74935533       0.24972972 </v>
   <v>       0.99901751       0.74958649       0.49993810 </v>
   <v>       0.99848571       0.75009976       0.75063525 </v>
   <v>       0.25009277       0.99984046       0.99965115 </v>
   <v>       0.25013585       0.00140307       0.25036436 </v>
   <v>       0.24971571       0.00032559       0.50035830 </v>
   <v>       0.25037238       0.00008590       0.75045674 </v>
   <v>       0.24924125       0.25023302       0.99950684 </v>
   <v>       0.25094565       0.24904724       0.24940113 </v>
   <v>       0.25062948       0.24930919       0.50006468 </v>
   <v>       0.24966861       0.25004611       0.75066295 </v>
   <v>       0.25009247       0.50008337       0.00039186 </v>
   <v>       0.24978145       0.50007603       0.25054849 </v>
   <v>       0.24909844       0.50142895       0.49954788 </v>
   <v>       0.25001878       0.50143662       0.74989852 </v>
   <v>       0.24872341       0.74985077       0.99998715 </v>
   <v>       0.25078409       0.75024571       0.24983451 </v>
   <v>       0.24867956       0.74942640       0.50000823 </v>
   <v>       0.25023579       0.75001574       0.75070744 </v>
   <v>       0.50080930       0.99993525       0.00072620 </v>
   <v>       0.50109137       0.99942048       0.25026665 </v>
   <v>       0.49975387       0.99962307       0.49992345 </v>
   <v>       0.49962353       0.00016000       0.74940758 </v>
   <v>       0.50034341       0.25136957       0.99886273 </v>
   <v>       0.50061576       0.24882914       0.25052596 </v>
   <v>       0.49962434       0.25034923       0.50023739 </v>
   <v>       0.50030746       0.25151482       0.75032320 </v>
   <v>       0.49975884       0.50033038       0.00017898 </v>
   <v>       0.50021225       0.49924117       0.24935216 </v>
   <v>       0.49910591       0.50075706       0.49923228 </v>
   <v>       0.49991371       0.50061008       0.75041086 </v>
   <v>       0.49879834       0.74991008       0.00006478 </v>
   <v>       0.50030542       0.75020656       0.25005855 </v>
   <v>       0.49983571       0.75047254       0.49851818 </v>
   <v>       0.49929804       0.75026593       0.75144781 </v>
   <v>       0.75070514       0.99958484       0.00001960 </v>
   <v>       0.75026962       0.99931936       0.25018191 </v>
   <v>       0.74918130       0.99992446       0.49926666 </v>
   <v>       0.74927199       0.00044237       0.74919288 </v>
   <v>       0.74975405       0.24919742       0.00066775 </v>
   <v>       0.74918130       0.24969390       0.24965247 </v>
   <v>       0.74993543       0.24849996       0.50053351 </v>
   <v>       0.75111339       0.25072433       0.75018684 </v>
   <v>       0.75015297       0.49940730       0.00036040 </v>
   <v>       0.74849310       0.49925642       0.24919800 </v>
   <v>       0.75029331       0.50015042       0.49977067 </v>
   <v>       0.75031139       0.49838959       0.75068100 </v>
   <v>       0.75101149       0.74960955       0.00031988 </v>
   <v>       0.74984684       0.74951689       0.25025265 </v>
   <v>       0.75012089       0.74959816       0.49969769 </v>
   <v>       0.75037685       0.74983577       0.75046596 </v>
   <v>       0.12377040       0.12483832       0.12568745 </v>
   <v>       0.12486124       0.12646888       0.37556563 </v>
   <v>       0.12504284       0.12464326       0.62476822 </v>
   <v>       0.12397582       0.12507769       0.87495179 </v>
   <v>       0.12525865       0.37471491       0.12343670 </v>
   <v>       0.12443766       0.37524622       0.37340302 </v>
   <v>       0.12516297       0.37542376       0.62658053 </v>
   <v>       0.12552033       0.37528988       0.87594690 </v>
   <v>       0.12445823       0.62573017       0.12526700 </v>
   <v>       0.12521970       0.62526948       0.37356227 </v>
   <v>       0.12530092       0.62431749       0.62421850 </v>
   <v>       0.12629897       0.62619657       0.87429458 </v>
   <v>       0.12507588       0.87632154       0.12417964 </v>
   <v>       0.12571109       0.87608032       0.37407432 </v>
   <v>       0.12553824       0.87452766       0.62480578 </v>
   <v>       0.12395185       0.87535273       0.87413864 </v>
   <v>       0.37508033       0.12485797       0.12564378 </v>
   <v>       0.37572505       0.12406851       0.37552290 </v>
   <v>       0.37563771       0.12487938       0.62481509 </v>
   <v>       0.37499163       0.12475268       0.87456287 </v>
   <v>       0.37550105       0.37418966       0.12483170 </v>
   <v>       0.37610212       0.37568537       0.37542089 </v>
   <v>       0.37353461       0.37488494       0.62383785 </v>
   <v>       0.37578352       0.37514990       0.87544923 </v>
   <v>       0.37556181       0.62568074       0.12377329 </v>
   <v>       0.37497188       0.62485059       0.37477437 </v>
   <v>       0.37553199       0.62487901       0.62484606 </v>
   <v>       0.37548786       0.62483713       0.87567689 </v>
   <v>       0.37422047       0.87596225       0.12485575 </v>
   <v>       0.37425442       0.87491387       0.37619218 </v>
   <v>       0.37592952       0.87515554       0.62475055 </v>
   <v>       0.37536376       0.87421335       0.87651449 </v>
   <v>       0.62540659       0.12453402       0.12538982 </v>
   <v>       0.62559481       0.12334273       0.37664863 </v>
   <v>       0.62581273       0.12530921       0.62519669 </v>
   <v>       0.62382267       0.12472205       0.87534267 </v>
   <v>       0.62487211       0.37526996       0.12394023 </v>
   <v>       0.62504529       0.37452504       0.37568661 </v>
   <v>       0.62656519       0.37468015       0.62555293 </v>
   <v>       0.62585393       0.37438998       0.87470620 </v>
   <v>       0.62456545       0.62496278       0.12520063 </v>
   <v>       0.62507177       0.62531498       0.37446385 </v>
   <v>       0.62528132       0.62455038       0.62487297 </v>
   <v>       0.62459109       0.62554681       0.87452563 </v>
   <v>       0.62503617       0.87484350       0.12475331 </v>
   <v>       0.62510925       0.87587063       0.37505181 </v>
   <v>       0.62468052       0.87446314       0.62473550 </v>
   <v>       0.62421168       0.87450991       0.87556431 </v>
   <v>       0.87467299       0.12512739       0.12518096 </v>
   <v>       0.87411986       0.12478962       0.37432926 </v>
   <v>       0.87511515       0.12361442       0.62529854 </v>
   <v>       0.87556612       0.12616823       0.87459812 </v>
   <v>       0.87640516       0.37482303       0.12493686 </v>
   <v>       0.87633406       0.37464373       0.37574098 </v>
   <v>       0.87403104       0.37586344       0.62469148 </v>
   <v>       0.87440733       0.37429878       0.87518995 </v>
   <v>       0.87499414       0.62558390       0.12476929 </v>
   <v>       0.87508341       0.62481201       0.37558140 </v>
   <v>       0.87511995       0.62591719       0.62507206 </v>
   <v>       0.87488756       0.62444413       0.87553617 </v>
   <v>       0.87491386       0.87521970       0.12442086 </v>
   <v>       0.87539186       0.87478674       0.37440258 </v>
   <v>       0.87486155       0.87608481       0.62430209 </v>
   <v>       0.87448340       0.87455047       0.87551132 </v>
  </varray>
 </structure>
 <calculation>
  <scstep>
   <time name="dav">   35.26   35.27</time>
   <time name="total">   37.13   37.14</time>
   <energy>
    <i name="alphaZ">   5761.72331717 </i>
    <i name="ewald"> -37878.21626410 </i>
    <i name="hartreedc">   -325.25754561 </i>
    <i name="XCdc">  -6048.79242156 </i>
    <i name="pawpsdc"> 109975.83433280 </i>
    <i name="pawaedc">-102596.88384747 </i>
    <i name="eentropy">     -0.00061043 </i>
    <i name="bandstr">   3252.79623246 </i>
    <i name="atom">  26187.24535810 </i>
    <i name="e_fr_energy">  -1671.55144863 </i>
    <i name="e_wo_entrp">  -1671.55083820 </i>
    <i name="e_0_energy">  -1671.55114342 </i>
   </energy>
  </scstep>
  <scstep>
   <time name="diag">    4.00    4.00</time>
   <time name="diis">   14.90   14.90</time>
   <time name="orth">    1.48    1.48</time>
   <time name="total">   22.22   22.23</time>
   <energy>
    <i name="e_fr_energy">  -1668.71584699 </i>
    <i name="e_wo_entrp">  -1668.71567141 </i>
    <i name="e_0_energy">  -1668.71575920 </i>
   </energy>
  </scstep>
  <scstep>
   <time name="diag">    4.05    4.05</time>
   <time name="diis">   14.49   14.50</time>
   <time name="orth">    1.42    1.42</time>
   <time name="total">   21.80   21.81</time>
   <energy>
    <i name="e_fr_energy">  -1667.14148658 </i>
    <i name="e_wo_entrp">  -1667.14140766 </i>
    <i name="e_0_energy">  -1667.14144712 </i>
   </energy>
  </scstep>
  <scstep>
   <time name="diag">    4.02    4.02</time>
   <time name="diis">   15.10   15.10</time>
   <time name="orth">    1.48    1.48</time>
   <time name="total">   22.45   22.46</time>
   <energy>
    <i name="e_fr_energy">  -1667.05284914 </i>
    <i name="e_wo_entrp">  -1667.05277193 </i>
    <i name="e_0_energy">  -1667.05281054 </i>
   </energy>
  </scstep>
  <scstep>
   <time name="diag">    4.01    4.02</time>
   <time name="diis">   16.01   16.01</time>
   <time name="orth">    1.46    1.46</time>
   <time name="total">   23.30   23.30</time>
   <energy>
    <i name="e_fr_energy">  -1667.05304695 </i>
    <i name="e_wo_entrp">  -1667.05296692 </i>
    <i name="e_0_energy">  -1667.05300693 </i>
   </energy>
  </scstep>
  <scstep>
   <time name="diag">    3.98    3.98</time>
   <time name="diis">   15.44   15.44</time>
   <time name="orth">    1.42    1.42</time>
   <time name="total">   22.68   22.69</time>
   <energy>
    <i name="e_fr_energy">  -1667.03960480 </i>
    <i name="e_wo_entrp">  -1667.03952474 </i>
    <i name="e_0_energy">  -1667.03956477 </i>
   </energy>
  </scstep>
  <scstep>
   <time name="diag">    4.01    4.02</time>
   <time name="diis">   18.27   18.28</time>
   <time name="orth">    1.42    1.42</time>
   <time name="total">   25.55   25.55</time>
   <energy>
    <i name="e_fr_energy">  -1667.04321230 </i>
    <i name="e_wo_entrp">  -1667.04313178 </i>
    <i name="e_0_energy">  -1667.04317204 </i>
   </energy>
  </scstep>
  <scstep>
   <time name="diag">    4.01    4.01</time>
   <time name="diis">   15.23   15.23</time>
   <time name="orth">    1.43    1.43</time>
   <time name="total">   22.49   22.49</time>
   <energy>
    <i name="e_fr_energy">  -1667.03829719 </i>
    <i name="e_wo_entrp">  -1667.03821718 </i>
    <i name="e_0_energy">  -1667.03825719 </i>
   </energy>
  </scstep>
  <scstep>
   <time name="diag">    4.00    4.00</time>
   <time name="diis">   18.83   18.83</time>
   <time name="orth">    1.44    1.44</time>
   <time name="total">   26.13   26.13</time>
   <energy>
    <i name="e_fr_energy">  -1667.03880762 </i>
    <i name="e_wo_entrp">  -1667.03872777 </i>
    <i name="e_0_energy">  -1667.03876769 </i>
   </energy>
  </scstep>
  <scstep>
   <time name="diag">    4.02    4.02</time>
   <time name="diis">   13.63   13.63</time>
   <time name="orth">    1.42    1.42</time>
   <time name="total">   20.95   20.95</time>
   <energy>
    <i name="e_fr_energy">  -1667.03837598 </i>
    <i name="e_wo_entrp">  -1667.03829602 </i>
    <i name="e_0_energy">  -1667.03833600 </i>
   </energy>
  </scstep>
  <scstep>
   <time name="diag">    4.03    4.03</time>
   <time name="diis">    9.84    9.84</time>
   <time name="orth">    1.42    1.42</time>
   <time name="total">   16.12   16.12</time>
   <energy>
    <i name="alphaZ">   5761.72331717 </i>
    <i name="ewald"> -37878.21626410 </i>
    <i name="hartreedc">   -322.52886918 </i>
    <i name="XCdc">  -6049.06311360 </i>
    <i name="pawpsdc"> 109893.16770039 </i>
    <i name="pawaedc">-102514.15827267 </i>
    <i name="eentropy">     -0.00008000 </i>
    <i name="bandstr">   3254.79186548 </i>
    <i name="atom">  26187.24535810 </i>
    <i name="e_fr_energy">  -1667.03835841 </i>
    <i name="e_wo_entrp">  -1667.03827840 </i>
    <i name="e_0_energy">  -1667.03831841 </i>
   </energy>
  </scstep>
  <structure>
   <crystal>
    <varray name="basis" >
     <v>      12.74965600       0.00000000       0.00000000 </v>
     <v>       0.00000000      12.74965600       0.00000000 </v>
     <v>       0.00000000       0.00000000      12.74965600 </v>
    </varray>
    <i name="volume">   2072.50411503 </i>
    <varray name="rec_basis" >
     <v>       0.07843349       0.00000000       0.00000000 </v>
     <v>       0.00000000       0.07843349       0.00000000 </v>
     <v>       0.00000000       0.00000000       0.07843349 </v>
    </varray>
   </crystal>
   <varray name="positions" >
    <v>       0.00120214       0.00003907       0.99884118 </v>
    <v>       0.00050029       0.00089977       0.24926048 </v>
    <v>       0.00004108       0.00003735       0.50039555 </v>
    <v>       0.99984931       0.00054145       0.74959866 </v>
    <v>       0.99836082       0.24918017       0.99993611 </v>
    <v>       0.99993435       0.25005077       0.24892593 </v>
    <v>       0.99990622       0.25059997       0.50063628 </v>
    <v>       0.99978031       0.25043706       0.75024461 </v>
    <v>       0.99986045       0.49897415       0.00123013 </v>
    <v>       0.00031490       0.49935289       0.25078904 </v>
    <v>       0.99936938       0.49945077       0.50018230 </v>
    <v>       0.00042556       0.50027194       0.75091043 </v>
    <v>       0.99979542       0.75010011       0.99982883 </v>
    <v>       0.00035398       0.74935533       0.24972972 </v>
    <v>       0.99901751       0.74958649       0.49993810 </v>
    <v>       0.99848571       0.75009976       0.75063525 </v>
    <v>       0.25009277       0.99984046       0.99965115 </v>
    <v>       0.25013585       0.00140307       0.25036436 </v>
    <v>       0.24971571       0.00032559       0.50035830 </v>
    <v>       0.25037238       0.00008590       0.75045674 </v>
    <v>       0.24924125       0.25023302       0.99950684 </v>
    <v>       0.25094565       0.24904724       0.24940113 </v>
    <v>       0.25062948       0.24930919       0.50006468 </v>
    <v>       0.24966861       0.25004611       0.75066295 </v>
    <v>       0.25009247       0.50008337       0.00039186 </v>
    <v>       0.24978145       0.50007603       0.25054849 </v>
    <v>       0.24909844       0.50142895       0.49954788 </v>
    <v>       0.25001878       0.50143662       0.74989852 </v>
    <v>       0.24872341       0.74985077       0.99998715 </v>
    <v>       0.25078409       0.75024571       0.24983451 </v>
    <v>       0.24867956       0.74942640       0.50000823 </v>
    <v>       0.25023579       0.75001574       0.75070744 </v>
    <v>       0.50080930       0.99993525       0.00072620 </v>
    <v>       0.50109137       0.99942048       0.25026665 </v>
    <v>       0.49975387       0.99962307       0.49992345 </v>
    <v>       0.49962353       0.00016000       0.74940758 </v>
    <v>       0.50034341       0.25136957       0.99886273 </v>
    <v>       0.50061576       0.24882914       0.25052596 </v>
    <v>       0.49962434       0.25034923       0.50023739 </v>
    <v>       0.50030746       0.25151482       0.75032320 </v>
    <v>       0.49975884       0.50033038       0.00017898 </v>
    <v>       0.50021225       0.49924117       0.24935216 </v>
    <v>       0.49910591       0.50075706       0.49923228 </v>
    <v>       0.49991371       0.50061008       0.75041086 </v>
    <v>       0.49879834       0.74991008       0.00006478 </v>
    <v>       0.50030542       0.75020656       0.25005855 </v>
    <v>       0.49983571       0.75047254       0.49851818 </v>
    <v>       0.49929804       0.75026593       0.75144781 </v>
    <v>       0.75070514       0.99958484       0.00001960 </v>
    <v>       0.75026962       0.99931936       0.25018191 </v>
    <v>       0.74918130       0.99992446       0.49926666 </v>
    <v>       0.74927199       0.00044237       0.74919288 </v>
    <v>       0.74975405       0.24919742       0.00066775 </v>
    <v>       0.74918130       0.24969390       0.24965247 </v>
    <v>       0.74993543       0.24849996       0.50053351 </v>
    <v>       0.75111339       0.25072433       0.75018684 </v>
    <v>       0.75015297       0.49940730       0.00036040 </v>
    <v>       0.74849310       0.49925642       0.24919800 </v>
    <v>       0.75029331       0.50015042       0.49977067 </v>
    <v>       0.75031139       0.49838959       0.75068100 </v>
    <v>       0.75101149       0.74960955       0.00031988 </v>
    <v>       0.74984684       0.74951689       0.25025265 </v>
    <v>       0.75012089       0.74959816       0.49969769 </v>
    <v>       0.75037685       0.74983577       0.75046596 </v>
    <v>       0.12377040       0.12483832       0.12568745 </v>
    <v>       0.12486124       0.12646888       0.37556563 </v>
    <v>       0.12504284       0.12464326       0.62476822 </v>
    <v>       0.12397582       0.12507769       0.87495179 </v>
    <v>       0.12525865       0.37471491       0.12343670 </v>
    <v>       0.12443766       0.37524622       0.37340302 </v>
    <v>       0.12516297       0.37542376       0.62658053 </v>
    <v>       0.12552033       0.37528988       0.87594690 </v>
    <v>       0.12445823       0.62573017       0.12526700 </v>
    <v>       0.12521970       0.62526948       0.37356227 </v>
    <v>       0.12530092       0.62431749       0.62421850 </v>
    <v>       0.12629897       0.62619657       0.87429458 </v>
    <v>       0.12507588       0.87632154       0.12417964 </v>
    <v>       0.12571109       0.87608032       0.37407432 </v>
    <v>       0.12553824       0.87452766       0.62480578 </v>
    <v>       0.12395185       0.87535273       0.87413864 </v>
    <v>       0.37508033       0.12485797       0.12564378 </v>
    <v>       0.37572505       0.12406851       0.37552290 </v>
    <v>       0.37563771       0.12487938       0.62481509 </v>
    <v>       0.37499163       0.12475268       0.87456287 </v>
    <v>       0.37550105       0.37418966       0.12483170 </v>
    <v>       0.37610212       0.37568537       0.37542089 </v>
    <v>       0.37353461       0.37488494       0.62383785 </v>
    <v>       0.37578352       0.37514990       0.87544923 </v>
    <v>       0.37556181       0.62568074       0.12377329 </v>
    <v>       0.37497188       0.62485059       0.37477437 </v>
    <v>       0.37553199       0.62487901       0.62484606 </v>
    <v>       0.37548786       0.62483713       0.87567689 </v>
    <v>       0.37422047       0.87596225       0.12485575 </v>
    <v>       0.37425442       0.87491387       0.37619218 </v>
    <v>       0.37592952       0.87515554       0.62475055 </v>
    <v>       0.37536376       0.87421335       0.87651449 </v>
    <v>       0.62540659       0.12453402       0.12538982 </v>
    <v>       0.62559481       0.12334273       0.37664863 </v>
    <v>       0.62581273       0.12530921       0.62519669 </v>
    <v>       0.62382267       0.12472205       0.87534267 </v>
    <v>       0.62487211       0.37526996       0.12394023 </v>
    <v>       0.62504529       0.37452504       0.37568661 </v>
    <v>       0.62656519       0.37468015       0.62555293 </v>
    <v>       0.62585393       0.37438998       0.87470620 </v>
    <v>       0.62456545       0.62496278       0.12520063 </v>
    <v>       0.62507177       0.62531498       0.37446385 </v>
    <v>       0.62528132       0.62455038       0.62487297 </v>
    <v>       0.62459109       0.62554681       0.87452563 </v>
    <v>       0.62503617       0.87484350       0.12475331 </v>
    <v>       0.62510925       0.87587063       0.37505181 </v>
    <v>       0.62468052       0.87446314       0.62473550 </v>
    <v>       0.62421168       0.87450991       0.87556431 </v>
    <v>       0.87467299       0.12512739       0.12518096 </v>
    <v>       0.87411986       0.12478962       0.37432926 </v>
    <v>       0.87511515       0.12361442       0.62529854 </v>
    <v>       0.87556612       0.12616823       0.87459812 </v>
    <v>       0.87640516       0.37482303       0.12493686 </v>
    <v>       0.87633406       0.37464373       0.37574098 </v>
    <v>       0.87403104       0.37586344       0.62469148 </v>
    <v>       0.87440733       0.37429878       0.87518995 </v>
    <v>       0.87499414       0.62558390       0.12476929 </v>
    <v>       0.87508341       0.62481201       0.37558140 </v>
    <v>       0.87511995       0.62591719       0.62507206 </v>
    <v>       0.87488756       0.62444413       0.87553617 </v>
    <v>       0.87491386       0.87521970       0.12442086 </v>
    <v>       0.87539186       0.87478674       0.37440258 </v>
    <v>       0.87486155       0.87608481       0.62430209 </v>
    <v>       0.87448340       0.87455047       0.87551132 </v>
   </varray>
  </structure>
  <varray name="forces" >
   <v>      -0.27081471      -0.00001230       0.17577295 </v>
   <v>      -0.10349777      -0.17556975       0.13700174 </v>
   <v>      -0.00021682      -0.00033880      -0.20431838 </v>
   <v>      -0.01260717      -0.13639131       0.00644682 </v>
   <v>       0.34080760       0.10268460       0.01762498 </v>
   <v>       0.03691377      -0.03106187       0.22058727 </v>
   <v>       0.01577130      -0.14034474      -0.10720127 </v>
   <v>       0.06904983      -0.02075568      -0.08145629 </v>
   <v>       0.09383646       0.22103763      -0.20084675 </v>
   <v>      -0.10534977       0.09756711      -0.14919973 </v>
   <v>       0.12788370       0.13088610       0.00552683 </v>
   <v>      -0.09246428      -0.00538194      -0.07864795 </v>
   <v>       0.04172945      -0.00647331       0.06892414 </v>
   <v>      -0.04080656       0.23729763      -0.00344270 </v>
   <v>       0.21695750       0.12944104      -0.03470344 </v>
   <v>       0.28670320       0.04029073      -0.19586607 </v>
   <v>       0.02731002       0.09569072       0.07319074 </v>
   <v>       0.02270084      -0.25715478      -0.03156039 </v>
   <v>       0.05934902      -0.07894886      -0.04320277 </v>
   <v>      -0.02683648      -0.03206740      -0.11552597 </v>
   <v>       0.14796187      -0.11745758       0.09950873 </v>
   <v>      -0.14100007       0.22705091       0.11915183 </v>
   <v>      -0.15774605       0.22674201      -0.02977844 </v>
   <v>       0.10119704       0.05153374      -0.13049434 </v>
   <v>       0.01992552       0.00999047      -0.05802606 </v>
   <v>       0.10101036      -0.05110642      -0.21767604 </v>
   <v>       0.10285755      -0.32995468       0.04023469 </v>
   <v>       0.09017600      -0.25839901       0.04999309 </v>
   <v>       0.20500147       0.11992859       0.04531462 </v>
   <v>      -0.13382291       0.10835399      -0.02444864 </v>
   <v>       0.22231425       0.17739423      -0.00976379 </v>
   <v>      -0.00167890       0.08214406      -0.17854713 </v>
   <v>      -0.13014941       0.04592199      -0.14165075 </v>
   <v>      -0.20628422       0.04038709      -0.02056149 </v>
   <v>       0.07504117       0.07294800       0.10906872 </v>
   <v>       0.09865093      -0.02437652       0.13950629 </v>
   <v>      -0.08730935      -0.35883363       0.22721893 </v>
   <v>      -0.05959728       0.13605394      -0.08202502 </v>
   <v>       0.15607089      -0.06143599       0.05208179 </v>
   <v>      -0.02124404      -0.24486995      -0.16988146 </v>
   <v>       0.10775927       0.00603618      -0.09199657 </v>
   <v>      -0.10291932       0.11260718       0.08775541 </v>
   <v>       0.22152139      -0.10595687       0.18418897 </v>
   <v>       0.05675153      -0.06712680      -0.16448858 </v>
   <v>       0.28186026       0.07695322       0.05242646 </v>
   <v>      -0.08228219       0.00814382      -0.08002188 </v>
   <v>       0.01837272      -0.09788039       0.36068276 </v>
   <v>       0.18680333      -0.00510657      -0.34078506 </v>
   <v>      -0.10991129       0.03035947      -0.07910907 </v>
   <v>       0.07115076       0.03757483      -0.08097149 </v>
   <v>       0.20033969      -0.09810860       0.13967360 </v>
   <v>       0.08508780      -0.13051731       0.17401607 </v>
   <v>      -0.00717161       0.05466888      -0.16583131 </v>
   <v>       0.22469424      -0.02518732       0.16033000 </v>
   <v>       0.04037882       0.25017591      -0.07414317 </v>
   <v>      -0.21997446      -0.22030073      -0.03852752 </v>
   <v>      -0.05032020       0.11074383      -0.09840414 </v>
   <v>       0.38440352       0.08277369       0.20847641 </v>
   <v>      -0.11835993      -0.06101571       0.06089447 </v>
   <v>      -0.06408850       0.41688015      -0.13882431 </v>
   <v>      -0.32227586       0.03376695      -0.04324034 </v>
   <v>       0.10044648       0.08842901      -0.07639618 </v>
   <v>      -0.09332100       0.09881607       0.08439849 </v>
   <v>      -0.18284016       0.03144005      -0.09762893 </v>
   <v>       0.25970083       0.12016695      -0.23891945 </v>
   <v>       0.02722357      -0.15015375      -0.06842203 </v>
   <v>       0.01735234       0.11511518       0.13499753 </v>
   <v>       0.18478741       0.03484484      -0.01440892 </v>
   <v>       0.00647404       0.01818074       0.31974321 </v>
   <v>       0.24273143      -0.02266893       0.32175320 </v>
   <v>      -0.07256597      -0.08744760      -0.31705242 </v>
   <v>      -0.10947789       0.00348864      -0.18089318 </v>
   <v>       0.11363504      -0.13415501      -0.10597894 </v>
   <v>      -0.10258346      -0.01877608       0.25322401 </v>
   <v>      -0.15090493       0.17978745       0.12973303 </v>
   <v>      -0.32129340      -0.21948159       0.17050288 </v>
   <v>      -0.03199546      -0.21397698       0.08231325 </v>
   <v>      -0.15969127      -0.15970213       0.13968978 </v>
   <v>      -0.15425384       0.01702571       0.03994973 </v>
   <v>       0.17794550      -0.04702497       0.07493624 </v>
   <v>       0.02241436       0.08270304      -0.12547498 </v>
   <v>      -0.08365162       0.17390519      -0.06420518 </v>
   <v>      -0.12351731       0.06722420       0.11747332 </v>
   <v>      -0.05964156       0.04281079       0.10249143 </v>
   <v>      -0.06247511       0.14509821       0.08035842 </v>
   <v>      -0.24681870      -0.18975312      -0.17833601 </v>
   <v>       0.27155702       0.09669933       0.28366487 </v>
   <v>      -0.17347795       0.03761479      -0.14782967 </v>
   <v>      -0.17472735      -0.16414411       0.31776657 </v>
   <v>      -0.00612385       0.04038314      -0.09140504 </v>
   <v>      -0.12853091       0.07258569       0.00953466 </v>
   <v>      -0.15886789      -0.01352031      -0.12807978 </v>
   <v>       0.12122526      -0.14771996       0.14724944 </v>
   <v>       0.11729922       0.00992450      -0.27804467 </v>
   <v>      -0.25363477      -0.09847878       0.17096296 </v>
   <v>      -0.22329888       0.17994249      -0.26967622 </v>
   <v>      -0.09251094       0.09614782      -0.00191884 </v>
   <v>      -0.16382307       0.33584533      -0.30461356 </v>
   <v>      -0.20571190      -0.04251053       0.06619942 </v>
   <v>       0.24999563       0.07488221      -0.03805559 </v>
   <v>       0.04636587      -0.14920078       0.22534268 </v>
   <v>       0.03061148       0.02378296      -0.17844085 </v>
   <v>      -0.35995952       0.06022112      -0.12665785 </v>
   <v>      -0.11672364       0.15999574       0.11857401 </v>
   <v>       0.07722468      -0.02248710      -0.05923523 </v>
   <v>      -0.02377093      -0.10312683       0.00085622 </v>
   <v>      -0.04463075       0.07209873       0.01294217 </v>
   <v>       0.13490206      -0.19329987       0.18138438 </v>
   <v>       0.01349323      -0.05035894       0.12184813 </v>
   <v>       0.00049609      -0.29128503      -0.05452323 </v>
   <v>       0.06511500       0.01486596       0.04282092 </v>
   <v>       0.16922064       0.09233342      -0.09261283 </v>
   <v>      -0.02097056      -0.03319541      -0.07956492 </v>
   <v>       0.18439132       0.04391448       0.12799122 </v>
   <v>       0.02125705       0.35500369      -0.06187641 </v>
   <v>      -0.21408141      -0.30847279       0.04989811 </v>
   <v>      -0.39642657       0.03755666       0.08650625 </v>
   <v>      -0.34898674       0.02946671      -0.19862797 </v>
   <v>       0.30218477      -0.15696554       0.15179364 </v>
   <v>       0.15764761       0.13288502       0.03907533 </v>
   <v>      -0.02243824      -0.20222942       0.13073348 </v>
   <v>      -0.03585773      -0.05669463      -0.18625419 </v>
   <v>       0.02193459      -0.20208182       0.05295984 </v>
   <v>       0.07289520      -0.00607586      -0.04237589 </v>
   <v>       0.05848730      -0.02711271       0.09091460 </v>
   <v>      -0.05587864       0.00162864       0.04542243 </v>
   <v>      -0.00888568      -0.24991596       0.15396786 </v>
   <v>       0.04572065       0.14330817      -0.18289475 </v>
  </varray>
  <varray name="stress" >
   <v>     -65.79868452       0.00222761      -0.01397634 </v>
   <v>       0.00222778     -65.84786538      -0.03169312 </v>
   <v>      -0.01397588      -0.03169299     -65.80847726 </v>
  </varray>
  <energy>
   <i name="e_fr_energy">  -1667.03835841 </i>
   <i name="e_wo_entrp">  -1667.03831841 </i>
   <i name="e_0_energy">     -0.00008000 </i>
  </energy>
  <time name="totalsc">  305.35  305.43</time>
 </calculation>
 <calculation>
  <scstep>
   <time name="dav">   32.18   32.19</time>
   <time name="total">   34.04   34.05</time>
   <energy>
    <i name="alphaZ">   6353.97943164 </i>
    <i name="ewald"> -39135.69521114 </i>
    <i name="hartreedc">   -331.98864002 </i>
    <i name="XCdc">  -6033.19599469 </i>
    <i name="pawpsdc"> 109893.55810297 </i>
    <i name="pawaedc">-102514.54865999 </i>
    <i name="eentropy">     -0.00002036 </i>
    <i name="bandstr">   3917.31651474 </i>
    <i name="atom">  26187.24535810 </i>
    <i name="e_fr_energy">  -1663.32911878 </i>
    <i name="e_wo_entrp">  -1663.32909841 </i>
    <i name="e_0_energy">  -1663.32910860 </i>
   </energy>
  </scstep>
  <scstep>
   <time name="diag">    4.00    4.00</time>
   <time name="diis">   15.45   15.46</time>
   <time name="orth">    1.49    1.49</time>
   <time name="total">   22.77   22.78</time>
   <energy>
    <i name="e_fr_energy">  -1658.18456391 </i>
    <i name="e_wo_entrp">  -1658.18455744 </i>
    <i name="e_0_energy">  -1658.18456068 </i>
   </energy>
  </scstep>
  <scstep>
   <time name="diag">    4.01    4.01</time>
   <time name="diis">   15.39   15.39</time>
   <time name="orth">    1.42    1.42</time>
   <time name="total">   22.65   22.66</time>
   <energy>
    <i name="e_fr_energy">  -1656.14353934 </i>
    <i name="e_wo_entrp">  -1656.14353716 </i>
    <i name="e_0_energy">  -1656.14353825 </i>
   </energy>
  </scstep>
  <scstep>
   <time name="diag">    4.00    4.00</time>
   <time name="diis">   18.92   18.93</time>
   <time name="orth">    1.42    1.42</time>
   <time name="total">   26.17   26.17</time>
   <energy>
    <i name="e_fr_energy">  -1656.17352555 </i>
    <i name="e_wo_entrp">  -1656.17352319 </i>
    <i name="e_0_energy">  -1656.17352437 </i>
   </energy>
  </scstep>
  <scstep>
   <time name="diag">    3.99    3.99</time>
   <time name="diis">   16.05   16.05</time>
   <time name="orth">    1.41    1.41</time>
   <time name="total">   23.28   23.29</time>
   <energy>
    <i name="e_fr_energy">  -1656.19053775 </i>
    <i name="e_wo_entrp">  -1656.19053533 </i>
    <i name="e_0_energy">  -1656.19053654 </i>
   </energy>
  </scstep>
  <scstep>
   <time name="diag">    3.99    3.99</time>
   <time name="diis">   15.83   15.83</time>
   <time name="orth">    1.47    1.47</time>
   <time name="total">   23.11   23.11</time>
   <energy>
    <i name="e_fr_energy">  -1656.19304202 </i>
    <i name="e_wo_entrp">  -1656.19303973 </i>
    <i name="e_0_energy">  -1656.19304088 </i>
   </energy>
  </scstep>
  <scstep>
   <time name="diag">    4.00    4.00</time>
   <time name="diis">   15.47   15.47</time>
   <time name="orth">    1.42    1.42</time>
   <time name="total">   22.75   22.76</time>
   <energy>
    <i name="e_fr_energy">  -1656.19209215 </i>
    <i name="e_wo_entrp">  -1656.19208992 </i>
    <i name="e_0_energy">  -1656.19209103 </i>
   </energy>
  </scstep>
  <scstep>
   <time name="diag">    4.04    4.04</time>
   <time name="diis">   14.25   14.25</time>
   <time name="orth">    1.42    1.42</time>
   <time name="total">   21.56   21.57</time>
   <energy>
    <i name="e_fr_energy">  -1656.19224717 </i>
    <i name="e_wo_entrp">  -1656.19224494 </i>
    <i name="e_0_energy">  -1656.19224605 </i>
   </energy>
  </scstep>
  <scstep>
   <time name="diag">    4.01    4.01</time>
   <time name="diis">    9.48    9.49</time>
   <time name="orth">    1.42    1.42</time>
   <time name="total">   16.77   16.77</time>
   <energy>
    <i name="e_fr_energy">  -1656.19213627 </i>
    <i name="e_wo_entrp">  -1656.19213403 </i>
    <i name="e_0_energy">  -1656.19213515 </i>
   </energy>
  </scstep>
  <scstep>
   <time name="diag">    4.01    4.01</time>
   <time name="diis">    9.25    9.25</time>
   <time name="orth">    1.42    1.42</time>
   <time name="total">   15.51   15.52</time>
   <energy>
    <i name="alphaZ">   6353.97943164 </i>
    <i name="ewald"> -39135.69521114 </i>
    <i name="hartreedc">   -248.51088157 </i>
    <i name="XCdc">  -6013.23989791 </i>
    <i name="pawpsdc"> 134326.67004405 </i>
    <i name="pawaedc">-126975.57187967 </i>
    <i name="eentropy">     -0.00000224 </i>
    <i name="bandstr">   3848.93093170 </i>
    <i name="atom">  26187.24535810 </i>
    <i name="e_fr_energy">  -1656.19210705 </i>
    <i name="e_wo_entrp">  -1656.19210482 </i>
    <i name="e_0_energy">  -1656.19210593 </i>
   </energy>
  </scstep>
  <structure>
   <crystal>
    <varray name="basis" >
     <v>      12.34065749       0.00001385      -0.00008688 </v>
     <v>       0.00001385      12.34035179      -0.00019700 </v>
     <v>      -0.00008687      -0.00019700      12.34059662 </v>
    </varray>
    <i name="volume">   1879.32545469 </i>
    <varray name="rec_basis" >
     <v>       0.08103296      -0.00000009       0.00000057 </v>
     <v>      -0.00000009       0.08103497       0.00000129 </v>
     <v>       0.00000057       0.00000129       0.08103336 </v>
    </varray>
   </crystal>
   <varray name="positions" >
    <v>       0.00017742       0.00003903       0.99950627 </v>
    <v>       0.00010867       0.00023544       0.24977887 </v>
    <v>       0.00004025       0.00003606       0.49962244 </v>
    <v>       0.99980161       0.00002537       0.74962305 </v>
    <v>       0.99965038       0.24956871       0.00000280 </v>
    <v>       0.00007403       0.24993324       0.24976060 </v>
    <v>       0.99996590       0.25006893       0.50023065 </v>
    <v>       0.00004159       0.25035852       0.74993639 </v>
    <v>       0.00021551       0.49981052       0.00047015 </v>
    <v>      -0.00008372       0.49972207       0.25022449 </v>
    <v>       0.99985327       0.49994602       0.50020321 </v>
    <v>       0.00007569       0.50025157       0.75061284 </v>
    <v>       0.99995332       0.75007562       0.00008962 </v>
    <v>       0.00019957       0.75025323       0.24971669 </v>
    <v>       0.99983844       0.75007627       0.49980678 </v>
    <v>       0.99957055       0.75025222       0.74989412 </v>
    <v>       0.25019611       0.00020254       0.99992809 </v>
    <v>       0.25022175       0.00043003       0.25024494 </v>
    <v>       0.24994028       0.00002686       0.50019482 </v>
    <v>       0.25027083      -0.00003544       0.75001960 </v>
    <v>       0.24980112       0.24978858       0.99988336 </v>
    <v>       0.25041213       0.24990636       0.24985198 </v>
    <v>       0.25003260       0.25016714       0.49995200 </v>
    <v>       0.25005153       0.25024110       0.75016918 </v>
    <v>       0.25016787       0.50012117       0.00017230 </v>
    <v>       0.25016365       0.49988265       0.24972484 </v>
    <v>       0.24948764       0.50018046       0.49970012 </v>
    <v>       0.25035999       0.50045888       0.75008768 </v>
    <v>       0.24949911       0.75030456       0.00015862 </v>
    <v>       0.25027772       0.75065570       0.24974200 </v>
    <v>       0.24952076       0.75009763       0.49997128 </v>
    <v>       0.25022944       0.75032656       0.75003184 </v>
    <v>       0.50031683       0.00010901       0.00019022 </v>
    <v>       0.50031082       0.99957330       0.25018885 </v>
    <v>       0.50003781       0.99989909       0.50033615 </v>
    <v>       0.49999681       0.00006776       0.74993545 </v>
    <v>       0.50001304       0.25001180       0.99972249 </v>
    <v>       0.50039026       0.24934394       0.25021559 </v>
    <v>       0.50021488       0.25011676       0.50043446 </v>
    <v>       0.50022708       0.25058827       0.74968040 </v>
    <v>       0.50016658       0.50035322      -0.00016912 </v>
    <v>       0.49982282       0.49966726       0.24968421 </v>
    <v>       0.49994412       0.50035613       0.49992922 </v>
    <v>       0.50012845       0.50035608       0.74978846 </v>
    <v>       0.49986485       0.75020126       0.00026316 </v>
    <v>       0.49999408       0.75023738       0.24975576 </v>
    <v>       0.49990523       0.75010218       0.49988295 </v>
    <v>       0.50000487       0.75024661       0.75015833 </v>
    <v>       0.75028926       0.99969972      -0.00027973 </v>
    <v>       0.75053885       0.99946154       0.24987552 </v>
    <v>       0.74993935       0.99955323       0.49979516 </v>
    <v>       0.74959395      -0.00005149       0.74985132 </v>
    <v>       0.74972692       0.24940428       0.00004027 </v>
    <v>       0.75003151       0.24959859       0.25025914 </v>
    <v>       0.75008822       0.24944659       0.50025297 </v>
    <v>       0.75028104       0.24989075       0.75004105 </v>
    <v>       0.74996257       0.49982634      -0.00001195 </v>
    <v>       0.74994762       0.49956962       0.24998684 </v>
    <v>       0.74984545       0.49991954       0.50000109 </v>
    <v>       0.75006889       0.49996700       0.75015571 </v>
    <v>       0.74979205       0.74973732       0.00015626 </v>
    <v>       0.75022691       0.74985149       0.24996358 </v>
    <v>       0.74976778       0.74997206       0.50001704 </v>
    <v>       0.74968501       0.74995473       0.75009655 </v>
    <v>       0.12475306       0.12529301       0.12478341 </v>
    <v>       0.12496425       0.12590072       0.37530673 </v>
    <v>       0.12510850       0.12507884       0.62527903 </v>
    <v>       0.12467503       0.12520953       0.87489727 </v>
    <v>       0.12528314       0.37478370       0.12464655 </v>
    <v>       0.12535612       0.37516044       0.37462048 </v>
    <v>       0.12488839       0.37509287       0.62538085 </v>
    <v>       0.12510608       0.37530308       0.87526243 </v>
    <v>       0.12488820       0.62522255       0.12486599 </v>
    <v>       0.12483154       0.62519844       0.37452043 </v>
    <v>       0.12472992       0.62499778       0.62470939 </v>
    <v>       0.12508324       0.62536608       0.87493974 </v>
    <v>       0.12495481       0.87551189       0.12449110 </v>
    <v>       0.12510684       0.87547603       0.37460289 </v>
    <v>       0.12495457       0.87459208       0.62495694 </v>
    <v>       0.12462517       0.87517480       0.87442219 </v>
    <v>       0.37516514       0.12517091       0.12516900 </v>
    <v>       0.37540852       0.12472654       0.37527996 </v>
    <v>       0.37517034       0.12513375       0.62525959 </v>
    <v>       0.37476595       0.12491467       0.87495069 </v>
    <v>       0.37526465       0.37473869       0.12513576 </v>
    <v>       0.37516820       0.37496737       0.37474609 </v>
    <v>       0.37456214       0.37525084       0.62491119 </v>
    <v>       0.37512711       0.37529223       0.87488987 </v>
    <v>       0.37490067       0.62505964       0.12497567 </v>
    <v>       0.37494871       0.62500339       0.37442851 </v>
    <v>       0.37504565       0.62515367       0.62488214 </v>
    <v>       0.37488673       0.62478597       0.87519225 </v>
    <v>       0.37467917       0.87540330       0.12541292 </v>
    <v>       0.37469826       0.87495142       0.37514010 </v>
    <v>       0.37496981       0.87478292       0.62539745 </v>
    <v>       0.37451883       0.87489423       0.87549408 </v>
    <v>       0.62505654       0.12489783       0.12538255 </v>
    <v>       0.62497493       0.12461352       0.37549603 </v>
    <v>       0.62503435       0.12514835       0.62544717 </v>
    <v>       0.62476862       0.12500539       0.87519867 </v>
    <v>       0.62504755       0.37470541       0.12479289 </v>
    <v>       0.62516112       0.37461503       0.37501142 </v>
    <v>       0.62520316       0.37490802       0.62507368 </v>
    <v>       0.62541226       0.37499538       0.87515487 </v>
    <v>       0.62485766       0.62487769       0.12497649 </v>
    <v>       0.62498182       0.62492477       0.37446709 </v>
    <v>       0.62511244       0.62482319       0.62492194 </v>
    <v>       0.62510154       0.62481540       0.87521196 </v>
    <v>       0.62508723       0.87465295       0.12521436 </v>
    <v>       0.62511113       0.87476845       0.37484550 </v>
    <v>       0.62492690       0.87451939       0.62489753 </v>
    <v>       0.62485199       0.87485929       0.87521388 </v>
    <v>       0.87459365       0.12500178       0.12487990 </v>
    <v>       0.87481757       0.12495578       0.37481355 </v>
    <v>       0.87519559       0.12495770       0.62506441 </v>
    <v>       0.87475607       0.12500102       0.87478693 </v>
    <v>       0.87490515       0.37496514       0.12526419 </v>
    <v>       0.87501355       0.37475523       0.37498941 </v>
    <v>       0.87517446       0.37526951       0.62526585 </v>
    <v>       0.87500384       0.37480160       0.87533781 </v>
    <v>       0.87490924       0.62481870       0.12526397 </v>
    <v>       0.87494773       0.62459749       0.37487664 </v>
    <v>       0.87520295       0.62515254       0.62527245 </v>
    <v>       0.87516338       0.62442114       0.87537582 </v>
    <v>       0.87513517       0.87511711       0.12476487 </v>
    <v>       0.87518043       0.87479291       0.37457445 </v>
    <v>       0.87482793       0.87513917       0.62488468 </v>
    <v>       0.87465640       0.87509273       0.87481928 </v>
   </varray>
  </structure>
  <varray name="forces" >
   <v>      -0.06628034       0.00758544       0.04250082 </v>
   <v>       0.02228685       0.00530889      -0.00861969 </v>
   <v>       0.00590882       0.00796128       0.07440816 </v>
   <v>       0.04401629       0.01895367       0.04399875 </v>
   <v>       0.03412676       0.13127743      -0.02250873 </v>
   <v>      -0.00921769       0.03767388       0.05358143 </v>
   <v>       0.00745251       0.03674776      -0.05014743 </v>
   <v>       0.00260445      -0.04573396       0.06598777 </v>
   <v>      -0.04389531       0.01224262      -0.05145310 </v>
   <v>       0.04780969       0.04179153      -0.05839618 </v>
   <v>       0.01721145       0.00400067      -0.04075404 </v>
   <v>       0.02111292      -0.03441116      -0.07901831 </v>
   <v>      -0.04269803      -0.02359733      -0.06558061 </v>
   <v>      -0.02820052      -0.07214495       0.02881618 </v>
   <v>      -0.00627736      -0.03135425      -0.01193431 </v>
   <v>       0.07670375      -0.07722682       0.04291084 </v>
   <v>      -0.07526597       0.00784176       0.01124195 </v>
   <v>      -0.06250369       0.00783391      -0.05507442 </v>
   <v>       0.01432718       0.03304527       0.00270909 </v>
   <v>      -0.12082800       0.04642037       0.00210503 </v>
   <v>       0.07973165       0.08433361       0.00117436 </v>
   <v>      -0.04833079       0.03164535       0.03496599 </v>
   <v>       0.02312181       0.00901329       0.03649240 </v>
   <v>      -0.01615665      -0.00310139      -0.01944070 </v>
   <v>      -0.02711325      -0.02859082      -0.02844197 </v>
   <v>      -0.05862192       0.05039646       0.01012623 </v>
   <v>       0.10169946      -0.00939372       0.03259387 </v>
   <v>      -0.13664251      -0.04642081      -0.02732177 </v>
   <v>       0.09308864      -0.04966958      -0.04273347 </v>
   <v>      -0.10638900      -0.14776686       0.04045295 </v>
[...]
       <r>     0.4253     4.2099    14.2224 </r>
       <r>     0.4701    17.7913    15.0195 </r>
       <r>     0.5149    51.0342    17.3058 </r>
       <r>     0.5597    99.4176    21.7598 </r>
       <r>     0.6045   131.5743    27.6543 </r>
       <r>     0.6493   118.3203    32.9551 </r>
       <r>     0.6941    72.2958    36.1940 </r>
       <r>     0.7389    30.0077    37.5384 </r>
       <r>     0.7837     8.4574    37.9173 </r>
       <r>     0.8285     1.6176    37.9897 </r>
       <r>     0.8733     0.2098    37.9991 </r>
       <r>     0.9181     0.0184    37.9999 </r>
       <r>     0.9629     0.0011    38.0000 </r>
       <r>     1.0077     0.0000    38.0000 </r>
       <r>     1.0525     0.0000    38.0000 </r>
       <r>     1.0973     0.0000    38.0000 </r>
       <r>     1.1421     0.0000    38.0000 </r>
       <r>     1.1869     0.0000    38.0000 </r>
       <r>     1.2317     0.0001    38.0000 </r>
       <r>     1.2765     0.0023    38.0001 </r>
       <r>     1.3213     0.0324    38.0016 </r>
       <r>     1.3661     0.3054    38.0152 </r>
       <r>     1.4109     1.9479    38.1025 </r>
       <r>     1.4557     8.4153    38.4795 </r>
       <r>     1.5005    24.6688    39.5847 </r>
       <r>     1.5453    49.3316    41.7948 </r>
       <r>     1.5901    68.7698    44.8757 </r>
       <r>     1.6349    72.6857    48.1320 </r>
       <r>     1.6797    72.8661    51.3964 </r>
       <r>     1.7245    83.7216    55.1472 </r>
       <r>     1.7693    92.6307    59.2971 </r>
       <r>     1.8141    78.5450    62.8159 </r>
       <r>     1.8589    47.5185    64.9448 </r>
       <r>     1.9037    23.1359    65.9812 </r>
       <r>     1.9485    16.3452    66.7135 </r>
       <r>     1.9933    20.8794    67.6489 </r>
       <r>     2.0381    28.1719    68.9110 </r>
       <r>     2.0829    44.5345    70.9062 </r>
       <r>     2.1277    93.5251    75.0961 </r>
       <r>     2.1725   181.3519    83.2208 </r>
       <r>     2.2173   256.5927    94.7162 </r>
       <r>     2.2621   250.0665   105.9193 </r>
       <r>     2.3069   166.0878   113.3600 </r>
       <r>     2.3517    75.1208   116.7255 </r>
       <r>     2.3965    23.8734   117.7950 </r>
       <r>     2.4413     9.2115   118.2077 </r>
       <r>     2.4861    16.1929   118.9331 </r>
       <r>     2.5309    37.0735   120.5940 </r>
       <r>     2.5757    60.0634   123.2849 </r>
       <r>     2.6205    67.2267   126.2967 </r>
       <r>     2.6653    55.9635   128.8039 </r>
       <r>     2.7101    46.4803   130.8862 </r>
       <r>     2.7549    54.9243   133.3468 </r>
       <r>     2.7997    74.9013   136.7024 </r>
       <r>     2.8445   104.7872   141.3969 </r>
       <r>     2.8893   183.5888   149.6218 </r>
       <r>     2.9341   349.2166   165.2668 </r>
       <r>     2.9789   533.9395   189.1874 </r>
       <r>     3.0237   582.1218   215.2667 </r>
       <r>     3.0685   440.0198   234.9797 </r>
       <r>     3.1133   229.1823   245.2472 </r>
       <r>     3.1581    82.0800   248.9244 </r>
       <r>     3.2029    20.1826   249.8286 </r>
       <r>     3.2477     3.4019   249.9810 </r>
       <r>     3.2925     0.3924   249.9985 </r>
       <r>     3.3373     0.0309   249.9999 </r>
       <r>     3.3821     0.0017   250.0000 </r>
       <r>     3.4269     0.0001   250.0000 </r>
       <r>     3.4718     0.0000   250.0000 </r>
       <r>     3.5166     0.0000   250.0000 </r>
       <r>     3.5614     0.0000   250.0000 </r>
       <r>     3.6062     0.0000   250.0000 </r>
       <r>     3.6510     0.0000   250.0000 </r>
       <r>     3.6958     0.0000   250.0000 </r>
       <r>     3.7406     0.0000   250.0000 </r>
       <r>     3.7854     0.0001   250.0000 </r>
       <r>     3.8302     0.0024   250.0001 </r>
       <r>     3.8750     0.0369   250.0018 </r>
       <r>     3.9198     0.3783   250.0187 </r>
       <r>     3.9646     2.6326   250.1367 </r>
       <r>     4.0094    12.5032   250.6968 </r>
       <r>     4.0542    40.8882   252.5286 </r>
       <r>     4.0990    93.9824   256.7390 </r>
       <r>     4.1438   158.9217   263.8588 </r>
       <r>     4.1886   215.2677   273.5029 </r>
       <r>     4.2334   259.8906   285.1460 </r>
       <r>     4.2782   296.1779   298.4149 </r>
       <r>     4.3230   311.5558   312.3727 </r>
       <r>     4.3678   287.4726   325.2516 </r>
       <r>     4.4126   229.6513   335.5400 </r>
       <r>     4.4574   185.0335   343.8296 </r>
       <r>     4.5022   204.0231   352.9699 </r>
       <r>     4.5470   275.9735   365.3336 </r>
       <r>     4.5918   325.4091   379.9120 </r>
       <r>     4.6366   288.0927   392.8187 </r>
       <r>     4.6814   183.5772   401.0430 </r>
       <r>     4.7262    87.6419   404.9694 </r>
       <r>     4.7710    51.2057   407.2634 </r>
       <r>     4.8158    79.4464   410.8226 </r>
       <r>     4.8606   151.3860   417.6048 </r>
       <r>     4.9054   222.1687   427.5580 </r>
       <r>     4.9502   242.2329   438.4101 </r>
       <r>     4.9950   204.8221   447.5862 </r>
       <r>     5.0398   146.1456   454.1336 </r>
       <r>     5.0846    94.7731   458.3794 </r>
       <r>     5.1294    60.1302   461.0733 </r>
       <r>     5.1742    60.7266   463.7939 </r>
       <r>     5.2190   126.1720   469.4464 </r>
       <r>     5.2638   255.2675   480.8825 </r>
       <r>     5.3086   371.9876   497.5476 </r>
       <r>     5.3534   375.3542   514.3636 </r>
       <r>     5.3982   261.8147   526.0930 </r>
       <r>     5.4430   130.4085   531.9353 </r>
       <r>     5.4878    66.0701   534.8953 </r>
       <r>     5.5326    88.4374   538.8573 </r>
       <r>     5.5774   174.7730   546.6872 </r>
       <r>     5.6222   267.1060   558.6536 </r>
       <r>     5.6670   308.8729   572.4913 </r>
       <r>     5.7118   310.8113   586.4157 </r>
       <r>     5.7566   311.3096   600.3625 </r>
       <r>     5.8014   290.0507   613.3568 </r>
       <r>     5.8462   217.2458   623.0895 </r>
       <r>     5.8910   134.1998   629.1017 </r>
       <r>     5.9358   102.0926   633.6755 </r>
       <r>     5.9806   119.8855   639.0464 </r>
       <r>     6.0254   134.1078   645.0545 </r>
       <r>     6.0702   108.7880   649.9282 </r>
       <r>     6.1150    60.6645   652.6460 </r>
       <r>     6.1598    23.0654   653.6793 </r>
       <r>     6.2046     5.9701   653.9468 </r>
       <r>     6.2494     1.0517   653.9939 </r>
       <r>     6.2942     0.1369   654.0000 </r>
       <r>     6.3390     0.1465   654.0066 </r>
       <r>     6.3838     1.1382   654.0576 </r>
       <r>     6.4286     6.4815   654.3480 </r>
       <r>     6.4734    25.2730   655.4802 </r>
       <r>     6.5182    67.7251   658.5143 </r>
       <r>     6.5630   125.6953   664.1455 </r>
       <r>     6.6078   164.9387   671.5348 </r>
       <r>     6.6526   163.6399   678.8659 </r>
       <r>     6.6974   146.8199   685.4435 </r>
       <r>     6.7422   145.5056   691.9622 </r>
       <r>     6.7870   144.7507   698.4471 </r>
       <r>     6.8318   114.9168   703.5954 </r>
       <r>     6.8766    64.9821   706.5066 </r>
       <r>     6.9214    25.3387   707.6418 </r>
       <r>     6.9662     7.2961   707.9687 </r>
       <r>     7.0110     4.9958   708.1925 </r>
       <r>     7.0558    16.5122   708.9322 </r>
       <r>     7.1006    48.3215   711.0970 </r>
       <r>     7.1454    98.6774   715.5178 </r>
       <r>     7.1902   144.9061   722.0097 </r>
       <r>     7.2350   169.9051   729.6215 </r>
       <r>     7.2798   189.0651   738.0916 </r>
       <r>     7.3246   210.6970   747.5309 </r>
       <r>     7.3694   202.6729   756.6107 </r>
       <r>     7.4142   146.1337   763.1576 </r>
       <r>     7.4590    74.3679   766.4893 </r>
       <r>     7.5038    26.1939   767.6628 </r>
       <r>     7.5486     6.3440   767.9470 </r>
       <r>     7.5934     1.0534   767.9942 </r>
       <r>     7.6382     0.1198   767.9996 </r>
       <r>     7.6830     0.0119   768.0001 </r>
       <r>     7.7278     0.0390   768.0018 </r>
       <r>     7.7726     0.3887   768.0193 </r>
       <r>     7.8174     2.6654   768.1387 </r>
       <r>     7.8622    12.4325   768.6957 </r>
       <r>     7.9070    39.4846   770.4646 </r>
       <r>     7.9518    85.5154   774.2957 </r>
       <r>     7.9966   126.9193   779.9817 </r>
       <r>     8.0414   131.8169   785.8872 </r>
       <r>     8.0862   104.5349   790.5703 </r>
       <r>     8.1310    80.8831   794.1939 </r>
       <r>     8.1758    74.8063   797.5453 </r>
       <r>     8.2206    67.2316   800.5573 </r>
       <r>     8.2654    45.9979   802.6180 </r>
       <r>     8.3102    22.2553   803.6150 </r>
       <r>     8.3550     9.2723   804.0305 </r>
       <r>     8.3998    10.6100   804.5058 </r>
       <r>     8.4446    26.0897   805.6746 </r>
       <r>     8.4894    50.1953   807.9234 </r>
       <r>     8.5342    66.0336   810.8817 </r>
       <r>     8.5790    58.9507   813.5227 </r>
       <r>     8.6238    35.7363   815.1237 </r>
       <r>     8.6686    15.1280   815.8014 </r>
       <r>     8.7134     7.5523   816.1398 </r>
       <r>     8.7582    18.2209   816.9561 </r>
       <r>     8.8030    60.2588   819.6557 </r>
       <r>     8.8478   142.4789   826.0388 </r>
       <r>     8.8926   231.9477   836.4301 </r>
       <r>     8.9374   259.6931   848.0645 </r>
       <r>     8.9822   199.9778   857.0235 </r>
       <r>     9.0270   106.1000   861.7769 </r>
       <r>     9.0718    40.2061   863.5781 </r>
       <r>     9.1166    17.1442   864.3462 </r>
       <r>     9.1614    24.1986   865.4303 </r>
       <r>     9.2062    46.8180   867.5277 </r>
       <r>     9.2510    68.8310   870.6114 </r>
       <r>     9.2958    81.1379   874.2464 </r>
       <r>     9.3406    97.6955   878.6232 </r>
       <r>     9.3854   136.5132   884.7390 </r>
       <r>     9.4302   182.9839   892.9368 </r>
       <r>     9.4750   199.3850   901.8693 </r>
       <r>     9.5198   169.6211   909.4683 </r>
       <r>     9.5646   113.9778   914.5746 </r>
       <r>     9.6094    63.2815   917.4096 </r>
       <r>     9.6542    31.8033   918.8344 </r>
       <r>     9.6990    15.6096   919.5337 </r>
       <r>     9.7438     7.0481   919.8495 </r>
       <r>     9.7886     2.5493   919.9637 </r>
       <r>     9.8334     0.6706   919.9937 </r>
       <r>     9.8782     0.1228   919.9992 </r>
       <r>     9.9230     0.0154   919.9999 </r>
       <r>     9.9678     0.0013   920.0000 </r>
       <r>    10.0126     0.0001   920.0000 </r>
       <r>    10.0574     0.0000   920.0000 </r>
       <r>    10.1022     0.0000   920.0000 </r>
       <r>    10.1470     0.0000   920.0000 </r>
       <r>    10.1918     0.0000   920.0000 </r>
       <r>    10.2366     0.0000   920.0000 </r>
       <r>    10.2814     0.0000   920.0000 </r>
       <r>    10.3262     0.0000   920.0000 </r>
       <r>    10.3710     0.0000   920.0000 </r>
       <r>    10.4158     0.0000   920.0000 </r>
       <r>    10.4606     0.0000   920.0000 </r>
       <r>    10.5054     0.0000   920.0000 </r>
       <r>    10.5502     0.0000   920.0000 </r>
       <r>    10.5950     0.0000   920.0000 </r>
       <r>    10.6398     0.0000   920.0000 </r>
      </set>
     </set>
    </array>
   </total>
  </dos>
 </calculation>
 <structure name="finalpos" >
  <crystal>
   <varray name="basis" >
    <v>      12.65527820       0.00000320      -0.00002005 </v>
    <v>       0.00000320      12.65520766      -0.00004546 </v>
    <v>      -0.00002005      -0.00004546      12.65526416 </v>
   </varray>
   <i name="volume">   2026.80602937 </i>
   <varray name="rec_basis" >
    <v>       0.07901841      -0.00000002       0.00000013 </v>
    <v>      -0.00000002       0.07901885       0.00000028 </v>
    <v>       0.00000013       0.00000028       0.07901850 </v>
   </varray>
  </crystal>
  <varray name="positions" >
   <v>       0.00099180       0.00003905       0.99897770 </v>
   <v>       0.00041990       0.00076342       0.24936690 </v>
   <v>       0.00004091       0.00003709       0.50023686 </v>
   <v>       0.99983952       0.00043553       0.74960367 </v>
   <v>       0.99862551       0.24925992      -0.00005021 </v>
   <v>      -0.00003698       0.25002664       0.24909725 </v>
   <v>       0.99991848       0.25049098       0.50055303 </v>
   <v>      -0.00016605       0.25042094       0.75018134 </v>
   <v>      -0.00006667       0.49914582       0.00107413 </v>
   <v>       0.00023308       0.49942867       0.25067316 </v>
   <v>       0.99946870       0.49955242       0.50018659 </v>
   <v>       0.00035374       0.50026776       0.75084935 </v>
   <v>       0.99982783       0.75009508      -0.00011764 </v>
   <v>       0.00032229       0.74953962       0.24972703 </v>
   <v>       0.99918602       0.74968701       0.49991113 </v>
   <v>       0.99870839       0.75013106       0.75048312 </v>
   <v>       0.25011398      -0.00008523       0.99970799 </v>
   <v>       0.25015348       0.00120336       0.25033986 </v>
   <v>       0.24976181       0.00026428       0.50032475 </v>
   <v>       0.25035154       0.00006100       0.75036701 </v>
   <v>       0.24935617       0.25014180       0.99958412 </v>
   <v>       0.25083614       0.24922356       0.24949366 </v>
   <v>       0.25050697       0.24948528       0.50004154 </v>
   <v>       0.24974721       0.25008613       0.75056160 </v>
   <v>       0.25010795       0.50009113       0.00034679 </v>
   <v>       0.24985990       0.50003635       0.25037943 </v>
   <v>       0.24917833       0.50117271       0.49957914 </v>
   <v>       0.25008881       0.50123595       0.74993735 </v>
   <v>       0.24888263       0.74994390       0.00002234 </v>
   <v>       0.25068015       0.75032985       0.24981552 </v>
   <v>       0.24885222       0.74956416       0.50000063 </v>
   <v>       0.25023449       0.75007954       0.75056876 </v>
   <v>       0.50070822      -0.00002908       0.00061619 </v>
   <v>       0.50093116       0.99945185       0.25025068 </v>
   <v>       0.49981215       0.99967971       0.50000815 </v>
   <v>       0.49970014       0.00014106       0.74951593 </v>
   <v>       0.50027559       0.25109089       0.99903922 </v>
   <v>       0.50056948       0.24893480       0.25046225 </v>
   <v>       0.49974555       0.25030151       0.50027784 </v>
   <v>       0.50029096       0.25132467       0.75019127 </v>
   <v>       0.49984253       0.50033508       0.00010753 </v>
   <v>       0.50013232       0.49932861       0.24942031 </v>
   <v>       0.49927796       0.50067476       0.49937533 </v>
   <v>       0.49995779       0.50055796       0.75028311 </v>
   <v>       0.49901725       0.74996984       0.00010549 </v>
   <v>       0.50024152       0.75021289       0.24999640 </v>
   <v>       0.49984997       0.75039651       0.49879831 </v>
   <v>       0.49944313       0.75026198       0.75118313 </v>
   <v>       0.75061978       0.99960842      -0.00004184 </v>
   <v>       0.75032489       0.99934855       0.25011902 </v>
   <v>       0.74933689       0.99984826       0.49937513 </v>
   <v>       0.74933807       0.00034100       0.74932803 </v>
   <v>       0.74974849       0.24923989       0.00053896 </v>
   <v>       0.74935581       0.24967433       0.24977699 </v>
   <v>       0.74996680       0.24869425       0.50047592 </v>
   <v>       0.75094254       0.25055325       0.75015693 </v>
   <v>       0.75011389       0.49949331       0.00028397 </v>
   <v>       0.74879165       0.49932069       0.24935990 </v>
   <v>       0.75020138       0.50010303       0.49981797 </v>
   <v>       0.75026162       0.49871334       0.75057316 </v>
   <v>       0.75076119       0.74963578       0.00028630 </v>
   <v>       0.74992485       0.74958556       0.25019331 </v>
   <v>       0.75004841       0.74967489       0.49976324 </v>
   <v>       0.75023484       0.74986019       0.75039014 </v>
   <v>       0.12397210       0.12493165       0.12550188 </v>
   <v>       0.12488239       0.12635228       0.37551250 </v>
   <v>       0.12505631       0.12473265       0.62487306 </v>
   <v>       0.12411934       0.12510475       0.87494059 </v>
   <v>       0.12526367       0.37472901       0.12368502 </v>
   <v>       0.12462618       0.37522860       0.37365291 </v>
   <v>       0.12510662       0.37535586       0.62633430 </v>
   <v>       0.12543530       0.37529259       0.87580642 </v>
   <v>       0.12454648       0.62562599       0.12518469 </v>
   <v>       0.12514002       0.62525489       0.37375894 </v>
   <v>       0.12518371       0.62445711       0.62431925 </v>
   <v>       0.12604942       0.62602611       0.87442702 </v>
   <v>       0.12505102       0.87615537       0.12424358 </v>
   <v>       0.12558706       0.87595629       0.37418283 </v>
   <v>       0.12541844       0.87454088       0.62483681 </v>
   <v>       0.12409005       0.87531621       0.87419684 </v>
   <v>       0.37509774       0.12492220       0.12554632 </v>
   <v>       0.37566008       0.12420357       0.37547303 </v>
   <v>       0.37554178       0.12493158       0.62490633 </v>
   <v>       0.37494531       0.12478592       0.87464247 </v>
   <v>       0.37545252       0.37430234       0.12489410 </v>
   <v>       0.37591043       0.37553802       0.37528240 </v>
   <v>       0.37374551       0.37496003       0.62405815 </v>
   <v>       0.37564879       0.37517912       0.87533442 </v>
   <v>       0.37542610       0.62555325       0.12402010 </v>
   <v>       0.37496713       0.62488195       0.37470338 </v>
   <v>       0.37543216       0.62493538       0.62485346 </v>
   <v>       0.37536447       0.62482663       0.87557742 </v>
   <v>       0.37431462       0.87584752       0.12497012 </v>
   <v>       0.37434553       0.87492159       0.37597623 </v>
   <v>       0.37573253       0.87507906       0.62488334 </v>
   <v>       0.37519033       0.87435311       0.87630504 </v>
   <v>       0.62533474       0.12460869       0.12538832 </v>
   <v>       0.62546759       0.12360356       0.37641204 </v>
   <v>       0.62565296       0.12527619       0.62524811 </v>
   <v>       0.62401684       0.12478021       0.87531310 </v>
   <v>       0.62490812       0.37515408       0.12411525 </v>
   <v>       0.62506907       0.37454352       0.37554802 </v>
   <v>       0.62628563       0.37472692       0.62545457 </v>
   <v>       0.62576327       0.37451422       0.87479829 </v>
   <v>       0.62462543       0.62494532       0.12515462 </v>
   <v>       0.62505330       0.62523490       0.37446452 </v>
   <v>       0.62524665       0.62460637       0.62488302 </v>
   <v>       0.62469586       0.62539669       0.87466651 </v>
   <v>       0.62504665       0.87480438       0.12484794 </v>
   <v>       0.62510963       0.87564442       0.37500948 </v>
   <v>       0.62473109       0.87447469       0.62476876 </v>
   <v>       0.62434311       0.87458162       0.87549237 </v>
   <v>       0.87465671       0.12510161       0.12511917 </v>
   <v>       0.87426307       0.12482371       0.37442866 </v>
   <v>       0.87513166       0.12389012       0.62525046 </v>
   <v>       0.87539985       0.12592867       0.87463689 </v>
   <v>       0.87609727       0.37485219       0.12500405 </v>
   <v>       0.87606301       0.37466662       0.37558672 </v>
   <v>       0.87426574       0.37574154       0.62480938 </v>
   <v>       0.87452977       0.37440198       0.87522029 </v>
   <v>       0.87497671       0.62542685       0.12487084 </v>
   <v>       0.87505556       0.62476799       0.37543675 </v>
   <v>       0.87513698       0.62576025       0.62511320 </v>
   <v>       0.87494418       0.62443941       0.87550326 </v>
   <v>       0.87495928       0.87519864       0.12449147 </v>
   <v>       0.87534846       0.87478801       0.37443786 </v>
   <v>       0.87485464       0.87589072       0.62442168 </v>
   <v>       0.87451892       0.87466177       0.87536927 </v>
  </varray>
 </structure>
</modeling>
