ITEM: TIMESTEP
0
ITEM: NUMBER OF ATOMS
64
ITEM: BOX BOUNDS pp pp pp
8.7608691138938988e-01 1.5123913088610619e+01
8.7608691138938988e-01 1.5123913088610619e+01
8.7608691138938988e-01 1.5123913088610619e+01
ITEM: ATOMS id type x y z fx fy fz c_ape 
2 1         4.4380434557         4.4380434557         0.8760869114        -0.0000000000        -0.0000000000        -0.0000000000        -0.0166366215 
38 2         4.4380434557         4.4380434557         4.4380434557        -0.0000000000        -0.0000000000         0.0000000000        -0.1216883273 
8 1         8.0000000000         4.4380434557         4.4380434557         0.0000000000        -0.0000000000         0.0000000000        -0.0166366215 
36 2         8.0000000000         4.4380434557         0.8760869114         0.0000000000        -0.0000000000        -0.0000000000        -0.1216883273 
11 1         4.4380434557         8.0000000000         4.4380434557        -0.0000000000         0.0000000000         0.0000000000        -0.0166366215 
43 2         4.4380434557         8.0000000000         0.8760869114        -0.0000000000         0.0000000000        -0.0000000000        -0.1216883273 
13 1         8.0000000000         8.0000000000         0.8760869114         0.0000000000         0.0000000000        -0.0000000000        -0.0166366215 
45 2         8.0000000000         8.0000000000         4.4380434557         0.0000000000         0.0000000000         0.0000000000        -0.1216883273 
18 1         4.4380434557         4.4380434557         8.0000000000        -0.0000000000        -0.0000000000        -0.0000000000        -0.0166366215 
52 2         8.0000000000         4.4380434557         8.0000000000         0.0000000000        -0.0000000000        -0.0000000000        -0.1216883273 
59 2         4.4380434557         8.0000000000         8.0000000000        -0.0000000000         0.0000000000        -0.0000000000        -0.1216883273 
29 1         8.0000000000         8.0000000000         8.0000000000         0.0000000000         0.0000000000        -0.0000000000        -0.0166366215 
4 1        15.1239130886         4.4380434557         4.4380434557         0.0000000000        -0.0000000000         0.0000000000        -0.0166366215 
33 2        15.1239130886         4.4380434557         0.8760869114         0.0000000000        -0.0000000000        -0.0000000000        -0.1216883273 
6 1        11.5619565443         4.4380434557         0.8760869114        -0.0000000000        -0.0000000000        -0.0000000000        -0.0166366215 
40 2        11.5619565443         4.4380434557         4.4380434557        -0.0000000000        -0.0000000000         0.0000000000        -0.1216883273 
9 1        15.1239130886         8.0000000000         0.8760869114         0.0000000000         0.0000000000        -0.0000000000        -0.0166366215 
42 2        15.1239130886         8.0000000000         4.4380434557         0.0000000000         0.0000000000         0.0000000000        -0.1216883273 
15 1        11.5619565443         8.0000000000         4.4380434557        -0.0000000000         0.0000000000         0.0000000000        -0.0166366215 
47 2        11.5619565443         8.0000000000         0.8760869114        -0.0000000000         0.0000000000        -0.0000000000        -0.1216883273 
49 2        15.1239130886         4.4380434557         8.0000000000         0.0000000000        -0.0000000000        -0.0000000000        -0.1216883273 
22 1        11.5619565443         4.4380434557         8.0000000000        -0.0000000000        -0.0000000000        -0.0000000000        -0.0166366215 
25 1        15.1239130886         8.0000000000         8.0000000000         0.0000000000         0.0000000000        -0.0000000000        -0.0166366215 
63 2        11.5619565443         8.0000000000         8.0000000000        -0.0000000000         0.0000000000        -0.0000000000        -0.1216883273 
3 1         4.4380434557        15.1239130886         4.4380434557        -0.0000000000         0.0000000000         0.0000000000        -0.0166366215 
35 2         4.4380434557        15.1239130886         0.8760869114        -0.0000000000         0.0000000000        -0.0000000000        -0.1216883273 
5 1         8.0000000000        15.1239130886         0.8760869114         0.0000000000         0.0000000000        -0.0000000000        -0.0166366215 
37 2         8.0000000000        15.1239130886         4.4380434557         0.0000000000         0.0000000000         0.0000000000        -0.1216883273 
10 1         4.4380434557        11.5619565443         0.8760869114        -0.0000000000        -0.0000000000        -0.0000000000        -0.0166366215 
46 2         4.4380434557        11.5619565443         4.4380434557        -0.0000000000        -0.0000000000         0.0000000000        -0.1216883273 
16 1         8.0000000000        11.5619565443         4.4380434557         0.0000000000        -0.0000000000         0.0000000000        -0.0166366215 
44 2         8.0000000000        11.5619565443         0.8760869114         0.0000000000        -0.0000000000        -0.0000000000        -0.1216883273 
51 2         4.4380434557        15.1239130886         8.0000000000        -0.0000000000         0.0000000000        -0.0000000000        -0.1216883273 
21 1         8.0000000000        15.1239130886         8.0000000000         0.0000000000         0.0000000000        -0.0000000000        -0.0166366215 
26 1         4.4380434557        11.5619565443         8.0000000000        -0.0000000000        -0.0000000000        -0.0000000000        -0.0166366215 
60 2         8.0000000000        11.5619565443         8.0000000000         0.0000000000        -0.0000000000        -0.0000000000        -0.1216883273 
1 1        15.1239130886        15.1239130886         0.8760869114         0.0000000000         0.0000000000        -0.0000000000        -0.0166366215 
34 2        15.1239130886        15.1239130886         4.4380434557         0.0000000000         0.0000000000         0.0000000000        -0.1216883273 
7 1        11.5619565443        15.1239130886         4.4380434557        -0.0000000000         0.0000000000         0.0000000000        -0.0166366215 
39 2        11.5619565443        15.1239130886         0.8760869114        -0.0000000000         0.0000000000        -0.0000000000        -0.1216883273 
12 1        15.1239130886        11.5619565443         4.4380434557         0.0000000000        -0.0000000000         0.0000000000        -0.0166366215 
41 2        15.1239130886        11.5619565443         0.8760869114         0.0000000000        -0.0000000000        -0.0000000000        -0.1216883273 
14 1        11.5619565443        11.5619565443         0.8760869114        -0.0000000000        -0.0000000000        -0.0000000000        -0.0166366215 
48 2        11.5619565443        11.5619565443         4.4380434557        -0.0000000000        -0.0000000000         0.0000000000        -0.1216883273 
17 1        15.1239130886        15.1239130886         8.0000000000         0.0000000000         0.0000000000        -0.0000000000        -0.0166366215 
55 2        11.5619565443        15.1239130886         8.0000000000        -0.0000000000         0.0000000000        -0.0000000000        -0.1216883273 
57 2        15.1239130886        11.5619565443         8.0000000000         0.0000000000        -0.0000000000        -0.0000000000        -0.1216883273 
30 1        11.5619565443        11.5619565443         8.0000000000        -0.0000000000        -0.0000000000        -0.0000000000        -0.0166366215 
54 2         4.4380434557         4.4380434557        11.5619565443        -0.0000000000        -0.0000000000        -0.0000000000        -0.1216883273 
24 1         8.0000000000         4.4380434557        11.5619565443         0.0000000000        -0.0000000000        -0.0000000000        -0.0166366215 
27 1         4.4380434557         8.0000000000        11.5619565443        -0.0000000000         0.0000000000        -0.0000000000        -0.0166366215 
61 2         8.0000000000         8.0000000000        11.5619565443         0.0000000000         0.0000000000        -0.0000000000        -0.1216883273 
20 1        15.1239130886         4.4380434557        11.5619565443         0.0000000000        -0.0000000000        -0.0000000000        -0.0166366215 
56 2        11.5619565443         4.4380434557        11.5619565443        -0.0000000000        -0.0000000000        -0.0000000000        -0.1216883273 
58 2        15.1239130886         8.0000000000        11.5619565443         0.0000000000         0.0000000000        -0.0000000000        -0.1216883273 
31 1        11.5619565443         8.0000000000        11.5619565443        -0.0000000000         0.0000000000        -0.0000000000        -0.0166366215 
19 1         4.4380434557        15.1239130886        11.5619565443        -0.0000000000         0.0000000000        -0.0000000000        -0.0166366215 
53 2         8.0000000000        15.1239130886        11.5619565443         0.0000000000         0.0000000000        -0.0000000000        -0.1216883273 
62 2         4.4380434557        11.5619565443        11.5619565443        -0.0000000000        -0.0000000000        -0.0000000000        -0.1216883273 
32 1         8.0000000000        11.5619565443        11.5619565443         0.0000000000        -0.0000000000        -0.0000000000        -0.0166366215 
50 2        15.1239130886        15.1239130886        11.5619565443         0.0000000000         0.0000000000        -0.0000000000        -0.1216883273 
23 1        11.5619565443        15.1239130886        11.5619565443        -0.0000000000         0.0000000000        -0.0000000000        -0.0166366215 
28 1        15.1239130886        11.5619565443        11.5619565443         0.0000000000        -0.0000000000        -0.0000000000        -0.0166366215 
64 2        11.5619565443        11.5619565443        11.5619565443        -0.0000000000        -0.0000000000        -0.0000000000        -0.1216883273 
ITEM: TIMESTEP
1000
ITEM: NUMBER OF ATOMS
64
ITEM: BOX BOUNDS pp pp pp
8.7608691138938988e-01 1.5123913088610619e+01
8.7608691138938988e-01 1.5123913088610619e+01
8.7608691138938988e-01 1.5123913088610619e+01
ITEM: ATOMS id type x y z fx fy fz c_ape 
2 1         4.4916716470         4.3357898157         0.9911884560         0.0016639457         0.0009264524        -0.0019227623        -0.0163856250 
38 2         4.3583768850         4.4748209520         4.5330037590        -0.0087097021         0.0065200954         0.0061935782        -0.1226457388 
8 1         7.9189855806         4.4970803208         4.4937365719        -0.0015096436         0.0013141225         0.0047748439        -0.0165417488 
36 2         8.0511965226         4.2922629441         0.9358453577         0.0091345560        -0.0025310455         0.0073050358        -0.1218165608 
11 1         4.6197632566         8.0645912475         4.2296402351         0.0046704080        -0.0017687117        -0.0008551136        -0.0172055848 
43 2         4.3605513059         7.9101767492         0.6965049611        -0.0146639344        -0.0041947795        -0.0145768425        -0.1222815012 
13 1         7.9046977703         7.8537343942         0.7751140038        -0.0016958719        -0.0014114875         0.0027798369        -0.0164275504 
45 2         8.1835299194         8.0564921833         4.3424458316         0.0145984416         0.0014065419         0.0016385400        -0.1222836003 
18 1         4.3801537016         4.4230282430         8.0979143215         0.0034080907         0.0006389694         0.0043339566        -0.0164329090 
52 2         7.9442195868         4.5592847480         8.0692856085         0.0070777259         0.0074742724         0.0055513155        -0.1225725009 
59 2         4.4087208432         8.0000386465         7.8212325232        -0.0072410393        -0.0038668894        -0.0141028738        -0.1229539461 
29 1         7.9713026900         8.1425338024         7.9153821520        -0.0029418092         0.0002565511        -0.0015124712        -0.0164779135 
4 1        15.0291094809         4.2903931367         4.4126245342        -0.0026084248        -0.0033358607         0.0004901927        -0.0164194493 
33 2        15.1734069606         4.4939851943         0.8593332456         0.0066431853         0.0111590807        -0.0015935507        -0.1218964887 
6 1        11.6321470687         4.1353153501         0.7695426262        -0.0001453403        -0.0035427355        -0.0024410331        -0.0172995846 
40 2        11.4908345187         4.7080918961         4.3136462679        -0.0073614742         0.0188905765        -0.0115487579        -0.1229352379 
9 1        15.0263318958         8.0787325703         0.8694124981        -0.0041776821         0.0000362471         0.0054176298        -0.0169418614 
42 2        15.2923973199         7.8683479253         4.4390121907         0.0148943977        -0.0156450942         0.0047901167        -0.1229305319 
15 1        11.7816175865         8.2878202720         4.2133146896        -0.0006214683         0.0075006296        -0.0045729560        -0.0174630740 
47 2        11.4826038107         7.7305120935         0.6790573841        -0.0113703158        -0.0190668529        -0.0088685303        -0.1233711962 
49 2        15.0719652952         4.4593184523         7.9770582943         0.0043055244         0.0035817553        -0.0008680195        -0.1214791410 
22 1        11.5195131441         4.3349812016         7.8486561622        -0.0026036006        -0.0026328680         0.0010119280        -0.0168780873 
25 1        15.0825682213         8.0291577174         8.0185664436        -0.0004976613         0.0012476681        -0.0020044635        -0.0165112161 
63 2        11.5387257546         7.9267447358         7.7941599937        -0.0096155310        -0.0101258694        -0.0128082698        -0.1222937782 
3 1         4.5455882012        15.1517546517         4.5180002157         0.0019214140         0.0025165864        -0.0035339883        -0.0166474735 
35 2         4.4936682637        15.0253379480         0.9377451353        -0.0007197501        -0.0065541571        -0.0005601926        -0.1229406361 
5 1         8.0606962282        14.9703532028         0.8013897904        -0.0007483922         0.0008794899         0.0014388457        -0.0160519821 
37 2         8.0961669078        15.1860893022         4.3864225967         0.0147803244        -0.0016452587        -0.0052476897        -0.1229289038 
10 1         4.5695366131        11.4477316825         1.1798835572         0.0035662701        -0.0029200767         0.0064964291        -0.0172197437 
46 2         4.3407117568        11.5911282287         4.7273271922        -0.0143170795         0.0036871662         0.0169742337        -0.1231076298 
16 1         7.8678321950        11.6246882122         4.2639065524        -0.0017212366        -0.0013092437        -0.0027030868        -0.0170027502 
44 2         8.1146657609        11.4226256026         0.7197974922         0.0105877537        -0.0058320518        -0.0103207942        -0.1227662753 
51 2         4.1731156414        15.1127991273         8.0577135780        -0.0148436000        -0.0059587657        -0.0006192847        -0.1225379617 
21 1         7.7209708023        15.2489273876         7.9370821189        -0.0033425413         0.0028766340        -0.0035885816        -0.0167135866 
26 1         4.5506074582        11.5549715868         8.3194052538         0.0062030972        -0.0034633701        -0.0000821251        -0.0171466228 
60 2         8.1052579077        11.6940980575         7.8469408964         0.0069501339         0.0065705005        -0.0136770231        -0.1225660103 
1 1        15.1653143436        15.1792692817         0.8868648993         0.0002044265         0.0056729229        -0.0015951115        -0.0166009673 
34 2        15.2124303752        14.9872894273         4.4502999155         0.0107446255        -0.0145020426        -0.0020696346        -0.1229846334 
7 1        11.6786103369        15.4311024161         4.6613487574         0.0022039689         0.0016235860        -0.0005663400        -0.0178264611 
39 2        11.6055648778        14.8437460605         1.0738384962         0.0040859974        -0.0135183839         0.0137875166        -0.1230584195 
12 1        15.0043200413        11.4065081339         4.4870866527        -0.0043285863        -0.0024901838        -0.0030320872        -0.0170040099 
41 2        15.2470180888        11.6231342070         0.9202070207         0.0091087342         0.0078009391        -0.0007601332        -0.1221590711 
14 1        11.7039129854        11.2473835578         0.9700913140        -0.0001619126        -0.0010776363         0.0036141083        -0.0173880632 
48 2        11.4581417327        11.8222126938         4.5015638442        -0.0131482755         0.0176853357         0.0079405422        -0.1243062966 
17 1        14.8358611463        15.1507021606         7.9983927827        -0.0032112429        -0.0002389029        -0.0017184727        -0.0164574199 
55 2        11.2979344183        15.0417099298         8.1891446150        -0.0148193710        -0.0095610236         0.0101824061        -0.1232619137 
57 2        15.2229189975        11.5949804668         8.0436873001         0.0151960192         0.0033178148        -0.0036764617        -0.1217841138 
30 1        11.6964425687        11.4709320157         8.0691129062        -0.0054129648         0.0000432558        -0.0009956815        -0.0168213006 
54 2         4.3106467074         4.5384862136        11.6625443370        -0.0058485448         0.0086073871         0.0050169842        -0.1222889574 
24 1         7.8695513431         4.4523447228        11.6543628408        -0.0022347243        -0.0015277489        -0.0031858126        -0.0162856618 
27 1         4.6428257280         8.1104278733        11.3660861503         0.0019581098         0.0019454256        -0.0020751355        -0.0170107049 
61 2         8.1841797506         7.9923446669        11.4682142953         0.0160383808        -0.0001476553         0.0027285801        -0.1216174480 
20 1        14.9928256355         4.5579622276        11.5436655126        -0.0029856930         0.0046243393        -0.0004764586        -0.0159741323 
56 2        11.4423300298         4.3857623436        11.4487459062        -0.0095558868        -0.0001174804        -0.0081891197        -0.1233077372 
58 2        15.3157447977         8.1132068061        11.5627888712         0.0125032671         0.0053261120         0.0060508668        -0.1220218552 
31 1        11.7725854949         7.9371636834        11.3428186451         0.0026163463         0.0013607004         0.0005063276        -0.0169768888 
19 1         4.3098490291        15.2337124254        11.6105990198        -0.0019572661        -0.0012107560         0.0033880488        -0.0165607326 
53 2         7.8758332881        15.1286622033        11.5021535635        -0.0041434987        -0.0008817003        -0.0052831266        -0.1219552753 
62 2         4.5097810746        11.6637601810        11.8440122075        -0.0000483375         0.0021173117         0.0211195454        -0.1223790990 
32 1         8.0594968222        11.5555302354        11.3917153485        -0.0000673224         0.0015322100        -0.0022977141        -0.0167515904 
50 2        14.9889175676        15.2414696937        11.5733096579        -0.0030684730         0.0041075819        -0.0040519305        -0.1219802940 
23 1        11.4248677849        15.0784456533        11.7711515503        -0.0005359735        -0.0015722850         0.0046890101        -0.0166703292 
28 1        15.1993501988        11.6954222112        11.5943236748         0.0002477914        -0.0010890275         0.0017228836        -0.0160873423 
64 2        11.6339685796        11.5043544317        11.6326235747        -0.0023287639         0.0004916831         0.0080383285        -0.1225190111 
ITEM: TIMESTEP
2000
ITEM: NUMBER OF ATOMS
64
ITEM: BOX BOUNDS pp pp pp
8.7608691138938988e-01 1.5123913088610619e+01
8.7608691138938988e-01 1.5123913088610619e+01
8.7608691138938988e-01 1.5123913088610619e+01
ITEM: ATOMS id type x y z fx fy fz c_ape 
2 1         4.7450517933         4.2748629927         1.0780341642        -0.0023350728         0.0029992840        -0.0023498482        -0.0225033938 
38 2         4.1228805273         4.4595774541         4.6742361298         0.0052919958        -0.0203290290        -0.0093663358        -0.1223974028 
8 1         7.7520897208         4.6955343879         4.6650676574         0.0008147969         0.0048161599        -0.0026387816        -0.0226015391 
59 2         4.1483224163         7.8419980837         7.5486638670        -0.0026662282        -0.0082870815         0.0169099396        -0.1262310515 
42 2         1.2158482735         7.4726853607         4.4895756309        -0.0090489455        -0.0051782612         0.0003725415        -0.1267371035 
3 1         4.9408570837         0.9214972792         4.7030250595         0.0026551034        -0.0060387845         0.0036703891        -0.0226983425 
21 1         7.2355604080         1.3216811959         7.6295308222        -0.0004865350        -0.0001662522         0.0005159410        -0.0238443311 
36 2         8.3592983945         4.1325529415         1.0968160899        -0.0023384911        -0.0125209585        -0.0137736904        -0.1194981221 
4 1        14.6902964339         3.7386646920         4.3962303037         0.0029618639         0.0025209165         0.0024865326        -0.0240472007 
40 2        11.4183689186         5.1042186281         3.9336749634         0.0116064703        -0.0108534035         0.0029297750        -0.1267800453 
49 2        15.2845052043         4.5754763821         7.9625789554         0.0060201164        -0.0035040195         0.0110406809        -0.1301647147 
22 1        11.7400123561         3.8993887820         7.3428062843         0.0003633694         0.0001677391         0.0036564954        -0.0256856201 
63 2        11.3022719296         7.6679365679         7.4353214772         0.0111901048        -0.0002447587         0.0040953351        -0.1236950171 
37 2         8.5281934717         1.0852348915         4.2568606175         0.0116603509         0.0130350746         0.0064778058        -0.1248135826 
7 1        12.2264654661         1.7304893354         5.2449663073        -0.0007079592        -0.0018128848        -0.0005946879        -0.0291309526 
17 1        14.2840832298         1.0668469923         7.6208656175        -0.0004558733         0.0010112046        -0.0012919184        -0.0242112452 
11 1         4.9691332806         8.2411574911         3.9528829324        -0.0019180135        -0.0081158208         0.0069230488        -0.0233687887 
29 1         7.6698630637         8.3825095206         7.9860233629         0.0006198772        -0.0002305040        -0.0047184817        -0.0208518011 
35 2         4.5227898730        14.8461803503         1.0974748936         0.0139020807         0.0129609637         0.0180678183        -0.1227035853 
10 1         5.2014288858        11.1214140986         1.8048305971        -0.0036188629         0.0043812191        -0.0012298231        -0.0249487430 
46 2         4.1071558958        11.5795220015         5.1649635116         0.0081007561        -0.0165380831         0.0035906082        -0.1251283159 
16 1         7.4063339648        11.8246078214         3.7269838635         0.0054889804         0.0079144014         0.0029839009        -0.0248250698 
34 2         1.2198658775        14.5086803093         4.3095647558        -0.0053499375         0.0114322426         0.0035644235        -0.1268366336 
41 2         1.3647184140        11.9072404125         0.9630478644        -0.0032938781        -0.0112220670         0.0013909919        -0.1263336041 
45 2         8.5665904573         8.3346772713         4.3070801794        -0.0052156540         0.0229553237        -0.0160130444        -0.1263964168 
9 1        14.4384372395         8.5539142658         1.1409280763         0.0044332114        -0.0020583173        -0.0028172312        -0.0256388185 
15 1        12.3038087422         8.8082536388         3.5626962375        -0.0120681917        -0.0039635334         0.0090460092        -0.0270979057 
60 2         8.0067337738        11.8697165398         7.4103932740        -0.0281229365         0.0121288950        -0.0038867458        -0.1212460192 
39 2        11.7629263238        14.3942678591         1.3931882755         0.0101736665        -0.0029446373         0.0004508016        -0.1241201300 
12 1        14.5828064891        10.9007565091         4.3597688594         0.0068415800         0.0035692809         0.0008968742        -0.0245336508 
14 1        12.1846948683        10.6726121417         1.4794685698        -0.0037154808         0.0053848198        -0.0100703261        -0.0280034505 
48 2        11.2698600584        12.1158533663         4.8634058804         0.0203485786        -0.0143643986         0.0064995927        -0.1247516282 
43 2         4.0226216426         7.9255224756        14.7909662278         0.0068835595         0.0159847051         0.0109809655        -0.1205412806 
13 1         7.5581740208         7.6961547283        15.0955405115         0.0031852644        -0.0028404992        -0.0039355643        -0.0227240418 
18 1         4.6857574166         4.1914507985         8.2642549110        -0.0003367277         0.0000784152         0.0002875470        -0.0206234939 
33 2         1.0767563231         4.9364541370        15.1589009891        -0.0160757267        -0.0013676381         0.0080006782        -0.1253862264 
1 1         0.9063913729         1.3488837164        15.0257341090         0.0015836836        -0.0000338791        -0.0036139711        -0.0231563696 
54 2         3.9398586739         4.7286527511        11.7491975888        -0.0112900003         0.0008415498        -0.0092726214        -0.1224446498 
24 1         7.5091484175         4.4883393106        11.8657070941        -0.0013054010         0.0021676603        -0.0017812730        -0.0214377403 
19 1         4.0982790233         1.0698422716        11.7366005374        -0.0037565625        -0.0016647763         0.0036517735        -0.0211697814 
52 2         8.1824622003         4.8076888023         8.2385450077        -0.0153314877        -0.0088106305        -0.0205950774        -0.1192275604 
6 1        11.9963225274         3.6037703279        14.6265613314        -0.0007210791        -0.0024882165        -0.0014310316        -0.0245906943 
47 2        11.2073994751         7.2776637912        14.5618215428         0.0279452867         0.0116649825         0.0024567180        -0.1273799803 
61 2         8.6086435388         7.9724736783        11.4516718840        -0.0180049172         0.0054246946        -0.0229877829        -0.1217292916 
20 1        14.5621286394         4.9259652142        11.5715366780         0.0001295401         0.0031974910         0.0019911411        -0.0212403672 
56 2        11.1067891668         4.3512474718        11.1367978581         0.0146446472        -0.0079284318         0.0075730919        -0.1263945534 
31 1        12.2105689432         7.9031614512        10.9227872838        -0.0010768824        -0.0014274737         0.0025775799        -0.0229797562 
50 2        14.7602683867         1.2382440997        11.3579147561        -0.0154215154         0.0153170309        -0.0131431202        -0.1245959907 
51 2         3.7007960537        14.9717365636         8.1129888449        -0.0003858131         0.0023703148         0.0090280442        -0.1253902833 
26 1         4.7634483244        11.2410175318         8.8761336800        -0.0070840805         0.0003140060        -0.0018888252        -0.0247483165 
57 2         1.0603828450        11.6647851761         8.0741777975        -0.0289178002        -0.0008573998        -0.0007303395        -0.1233723407 
27 1         5.0652222322         8.3202894919        11.0327920644        -0.0034768604        -0.0022086433         0.0033662849        -0.0242845715 
58 2         1.3974565265         8.3815709157        11.6105150137        -0.0013020819         0.0142126250        -0.0089863896        -0.1237251846 
53 2         7.6596671247        15.1121022162        11.3028709676        -0.0181223888         0.0015121023         0.0025908924        -0.1212369557 
62 2         4.5540297588        11.6869533812        12.4196013012         0.0159867744        -0.0028796846        -0.0068518561        -0.1243907869 
28 1         0.9593777460        11.9486150452        11.6360996851         0.0053103591         0.0043177697         0.0007024178        -0.0189446109 
25 1        14.7512940617         8.1485316606         8.1085822549         0.0022138074        -0.0020162831        -0.0011085235        -0.0203539612 
5 1         8.1620713997        14.7854967214        14.8757985455         0.0021335616        -0.0013570044         0.0003687588        -0.0216534831 
44 2         8.5254101949        11.2037436922        14.6328428363        -0.0094054685        -0.0135243948         0.0197090551        -0.1237100987 
55 2        10.8789312403        14.8463207075         8.5525326046         0.0044583749        -0.0070385464        -0.0027942647        -0.1269841251 
30 1        11.6937668056        11.1654480145         8.3744403199        -0.0072481076        -0.0002630371        -0.0008888531        -0.0230553059 
32 1         7.9161561200        11.4762559374        10.9737802273         0.0041034042         0.0026043128         0.0003009011        -0.0228454792 
23 1        11.1946601908        15.1563110513        12.2183475326        -0.0028541892        -0.0017675579         0.0016620256        -0.0219522366 