       N       E                     dE             d eps       ncg     rms          rms(c)
DAV:   1    -0.167155144863E+04   -0.16716E+04   -0.10367E+02  1040   0.130E+01    0.788E+00
RMM:   2    -0.166871584699E+04    0.28356E+01   -0.38579E+01   939   0.559E+00    0.595E+00
RMM:   3    -0.166714148658E+04    0.15744E+01   -0.21954E+00   923   0.151E+00    0.337E+00
RMM:   4    -0.166705284914E+04    0.88637E-01   -0.79912E-01   954   0.762E-01    0.171E+00
RMM:   5    -0.166705304695E+04   -0.19780E-03   -0.23201E-01  1008   0.390E-01    0.891E-01
RMM:   6    -0.166703960480E+04    0.13442E-01   -0.57766E-02   979   0.197E-01    0.403E-01
RMM:   7    -0.166704321230E+04   -0.36075E-02   -0.53154E-02  1152   0.158E-01    0.333E-01
RMM:   8    -0.166703829719E+04    0.49151E-02   -0.11916E-02   960   0.922E-02    0.958E-02
RMM:   9    -0.166703880762E+04   -0.51043E-03   -0.11212E-02  1182   0.674E-02    0.104E-01
RMM:  10    -0.166703837598E+04    0.43164E-03   -0.11179E-03   853   0.297E-02    0.274E-02
RMM:  11    -0.166703835841E+04    0.17572E-04   -0.35725E-04   613   0.160E-02
   1 F= -.16670384E+04 E0= -.16670383E+04  d E =-.166704E+04
       N       E                     dE             d eps       ncg     rms          rms(c)
DAV:   1    -0.166332911878E+04    0.37093E+01   -0.49537E+02   920   0.348E+01    0.549E+01
RMM:   2    -0.165818456391E+04    0.51446E+01   -0.50138E+00   920   0.299E+00    0.297E+01
RMM:   3    -0.165614353934E+04    0.20410E+01   -0.70745E+00   920   0.338E+00    0.535E+00
RMM:   4    -0.165617352555E+04   -0.29986E-01   -0.26127E-01  1126   0.424E-01    0.250E+00
RMM:   5    -0.165619053775E+04   -0.17012E-01   -0.27476E-02   953   0.176E-01    0.417E-01
RMM:   6    -0.165619304202E+04   -0.25043E-02   -0.20146E-02   937   0.145E-01    0.105E+00
RMM:   7    -0.165619209215E+04    0.94988E-03   -0.99660E-03   927   0.115E-01    0.142E-01
RMM:   8    -0.165619224717E+04   -0.15502E-03   -0.16603E-03   852   0.327E-02    0.277E-01
RMM:   9    -0.165619213627E+04    0.11090E-03   -0.17362E-04   546   0.172E-02    0.461E-02
RMM:  10    -0.165619210705E+04    0.29213E-04   -0.70987E-05   536   0.921E-03
   2 F= -.16561921E+04 E0= -.16561921E+04  d E =0.108463E+02
       N       E                     dE             d eps       ncg     rms          rms(c)
DAV:   1    -0.167225627012E+04   -0.16064E+02   -0.28072E+02   920   0.246E+01    0.408E+01
RMM:   2    -0.166925045219E+04    0.30058E+01   -0.27072E+00   920   0.216E+00    0.225E+01
RMM:   3    -0.166805047912E+04    0.12000E+01   -0.45337E+00   920   0.253E+00    0.392E+00
RMM:   4    -0.166805881315E+04   -0.83340E-02   -0.15776E-01  1123   0.319E-01    0.172E+00
RMM:   5    -0.166806467106E+04   -0.58579E-02   -0.17624E-02   950   0.138E-01    0.260E-01
RMM:   6    -0.166806752807E+04   -0.28570E-02   -0.10934E-02   966   0.991E-02    0.756E-01
RMM:   7    -0.166806642562E+04    0.11024E-02   -0.48951E-03   926   0.762E-02    0.438E-02
RMM:   8    -0.166806653695E+04   -0.11133E-03   -0.11129E-03   883   0.288E-02    0.176E-01
RMM:   9    -0.166806653203E+04    0.49221E-05   -0.10762E-04   536   0.125E-02
   3 F= -.16680665E+04 E0= -.16680665E+04  d E =-.102817E+01
