unknown system                          
           1
    12.749656    0.000000    0.000000
     0.000000   12.749656    0.000000
     0.000000    0.000000   12.749656
   W 
 128
Direct configuration=     1
   0.00120214  0.00003907  0.99884118
   0.00050029  0.00089977  0.24926048
   0.00004108  0.00003735  0.50039555
   0.99984931  0.00054145  0.74959866
   0.99836082  0.24918017  0.99993611
   0.99993435  0.25005077  0.24892593
   0.99990622  0.25059997  0.50063628
   0.99978031  0.25043706  0.75024461
   0.99986045  0.49897415  0.00123013
   0.00031490  0.49935289  0.25078904
   0.99936938  0.49945077  0.50018230
   0.00042556  0.50027194  0.75091043
   0.99979542  0.75010011  0.99982883
   0.00035398  0.74935533  0.24972972
   0.99901751  0.74958649  0.49993810
   0.99848571  0.75009976  0.75063525
   0.25009277  0.99984046  0.99965115
   0.25013585  0.00140307  0.25036436
   0.24971571  0.00032559  0.50035830
   0.25037238  0.00008590  0.75045674
   0.24924125  0.25023302  0.99950684
   0.25094565  0.24904724  0.24940113
   0.25062948  0.24930919  0.50006468
   0.24966861  0.25004611  0.75066295
   0.25009247  0.50008337  0.00039186
   0.24978145  0.50007603  0.25054849
   0.24909844  0.50142895  0.49954788
   0.25001878  0.50143662  0.74989852
   0.24872341  0.74985077  0.99998715
   0.25078409  0.75024571  0.24983451
   0.24867956  0.74942640  0.50000823
   0.25023579  0.75001574  0.75070744
   0.50080930  0.99993525  0.00072620
   0.50109137  0.99942048  0.25026665
   0.49975387  0.99962307  0.49992345
   0.49962353  0.00016000  0.74940758
   0.50034341  0.25136957  0.99886273
   0.50061576  0.24882914  0.25052596
   0.49962434  0.25034923  0.50023739
   0.50030746  0.25151482  0.75032320
   0.49975884  0.50033038  0.00017898
   0.50021225  0.49924117  0.24935216
   0.49910591  0.50075706  0.49923228
   0.49991371  0.50061008  0.75041086
   0.49879834  0.74991008  0.00006478
   0.50030542  0.75020656  0.25005855
   0.49983571  0.75047254  0.49851818
   0.49929804  0.75026593  0.75144781
   0.75070514  0.99958484  0.00001960
   0.75026962  0.99931936  0.25018191
   0.74918130  0.99992446  0.49926666
   0.74927199  0.00044237  0.74919288
   0.74975405  0.24919742  0.00066775
   0.74918130  0.24969390  0.24965247
   0.74993543  0.24849996  0.50053351
   0.75111339  0.25072433  0.75018684
   0.75015297  0.49940730  0.00036040
   0.74849310  0.49925642  0.24919800
   0.75029331  0.50015042  0.49977067
   0.75031139  0.49838959  0.75068100
   0.75101149  0.74960955  0.00031988
   0.74984684  0.74951689  0.25025265
   0.75012089  0.74959816  0.49969769
   0.75037685  0.74983577  0.75046596
   0.12377040  0.12483832  0.12568745
   0.12486124  0.12646888  0.37556563
   0.12504284  0.12464326  0.62476822
   0.12397582  0.12507769  0.87495179
   0.12525865  0.37471491  0.12343670
   0.12443766  0.37524622  0.37340302
   0.12516297  0.37542376  0.62658053
   0.12552033  0.37528988  0.87594690
   0.12445823  0.62573017  0.12526700
   0.12521970  0.62526948  0.37356227
   0.12530092  0.62431749  0.62421850
   0.12629897  0.62619657  0.87429458
   0.12507588  0.87632154  0.12417964
   0.12571109  0.87608032  0.37407432
   0.12553824  0.87452766  0.62480578
   0.12395185  0.87535273  0.87413864
   0.37508033  0.12485797  0.12564378
   0.37572505  0.12406851  0.37552290
   0.37563771  0.12487938  0.62481509
   0.37499163  0.12475268  0.87456287
   0.37550105  0.37418966  0.12483170
   0.37610212  0.37568537  0.37542089
   0.37353461  0.37488494  0.62383785
   0.37578352  0.37514990  0.87544923
   0.37556181  0.62568074  0.12377329
   0.37497188  0.62485059  0.37477437
   0.37553199  0.62487901  0.62484606
   0.37548786  0.62483713  0.87567689
   0.37422047  0.87596225  0.12485575
   0.37425442  0.87491387  0.37619218
   0.37592952  0.87515554  0.62475055
   0.37536376  0.87421335  0.87651449
   0.62540659  0.12453402  0.12538982
   0.62559481  0.12334273  0.37664863
   0.62581273  0.12530921  0.62519669
   0.62382267  0.12472205  0.87534267
   0.62487211  0.37526996  0.12394023
   0.62504529  0.37452504  0.37568661
   0.62656519  0.37468015  0.62555293
   0.62585393  0.37438998  0.87470620
   0.62456545  0.62496278  0.12520063
   0.62507177  0.62531498  0.37446385
   0.62528132  0.62455038  0.62487297
   0.62459109  0.62554681  0.87452563
   0.62503617  0.87484350  0.12475331
   0.62510925  0.87587063  0.37505181
   0.62468052  0.87446314  0.62473550
   0.62421168  0.87450991  0.87556431
   0.87467299  0.12512739  0.12518096
   0.87411986  0.12478962  0.37432926
   0.87511515  0.12361442  0.62529854
   0.87556612  0.12616823  0.87459812
   0.87640516  0.37482303  0.12493686
   0.87633406  0.37464373  0.37574098
   0.87403104  0.37586344  0.62469148
   0.87440733  0.37429878  0.87518995
   0.87499414  0.62558390  0.12476929
   0.87508341  0.62481201  0.37558140
   0.87511995  0.62591719  0.62507206
   0.87488756  0.62444413  0.87553617
   0.87491386  0.87521970  0.12442086
   0.87539186  0.87478674  0.37440258
   0.87486155  0.87608481  0.62430209
   0.87448340  0.87455047  0.87551132
unknown system                          
           1
    12.340657    0.000014   -0.000087
     0.000014   12.340352   -0.000197
    -0.000087   -0.000197   12.340597
   W 
 128
Direct configuration=     2
   0.00017742  0.00003903  0.99950627
   0.00010867  0.00023544  0.24977887
   0.00004025  0.00003606  0.49962244
   0.99980161  0.00002537  0.74962305
   0.99965038  0.24956871  0.00000280
   0.00007403  0.24993324  0.24976060
   0.99996590  0.25006893  0.50023065
   0.00004159  0.25035852  0.74993639
   0.00021551  0.49981052  0.00047015
  -0.00008372  0.49972207  0.25022449
   0.99985327  0.49994602  0.50020321
   0.00007569  0.50025157  0.75061284
   0.99995332  0.75007562  0.00008962
   0.00019957  0.75025323  0.24971669
   0.99983844  0.75007627  0.49980678
   0.99957055  0.75025222  0.74989412
   0.25019611  0.00020254  0.99992809
   0.25022175  0.00043003  0.25024494
   0.24994028  0.00002686  0.50019482
   0.25027083 -0.00003544  0.75001960
   0.24980112  0.24978858  0.99988336
   0.25041213  0.24990636  0.24985198
   0.25003260  0.25016714  0.49995200
   0.25005153  0.25024110  0.75016918
   0.25016787  0.50012117  0.00017230
   0.25016365  0.49988265  0.24972484
   0.24948764  0.50018046  0.49970012
   0.25035999  0.50045888  0.75008768
   0.24949911  0.75030456  0.00015862
   0.25027772  0.75065570  0.24974200
   0.24952076  0.75009763  0.49997128
   0.25022944  0.75032656  0.75003184
   0.50031683  0.00010901  0.00019022
   0.50031082  0.99957330  0.25018885
   0.50003781  0.99989909  0.50033615
   0.49999681  0.00006776  0.74993545
   0.50001304  0.25001180  0.99972249
   0.50039026  0.24934394  0.25021559
   0.50021488  0.25011676  0.50043446
   0.50022708  0.25058827  0.74968040
   0.50016658  0.50035322 -0.00016912
   0.49982282  0.49966726  0.24968421
   0.49994412  0.50035613  0.49992922
   0.50012845  0.50035608  0.74978846
   0.49986485  0.75020126  0.00026316
   0.49999408  0.75023738  0.24975576
   0.49990523  0.75010218  0.49988295
   0.50000487  0.75024661  0.75015833
   0.75028926  0.99969972 -0.00027973
   0.75053885  0.99946154  0.24987552
   0.74993935  0.99955323  0.49979516
   0.74959395 -0.00005149  0.74985132
   0.74972692  0.24940428  0.00004027
   0.75003151  0.24959859  0.25025914
   0.75008822  0.24944659  0.50025297
   0.75028104  0.24989075  0.75004105
   0.74996257  0.49982634 -0.00001195
   0.74994762  0.49956962  0.24998684
   0.74984545  0.49991954  0.50000109
   0.75006889  0.49996700  0.75015571
   0.74979205  0.74973732  0.00015626
   0.75022691  0.74985149  0.24996358
   0.74976778  0.74997206  0.50001704
   0.74968501  0.74995473  0.75009655
   0.12475306  0.12529301  0.12478341
   0.12496425  0.12590072  0.37530673
   0.12510850  0.12507884  0.62527903
   0.12467503  0.12520953  0.87489727
   0.12528314  0.37478370  0.12464655
   0.12535612  0.37516044  0.37462048
   0.12488839  0.37509287  0.62538085
   0.12510608  0.37530308  0.87526243
   0.12488820  0.62522255  0.12486599
   0.12483154  0.62519844  0.37452043
   0.12472992  0.62499778  0.62470939
   0.12508324  0.62536608  0.87493974
   0.12495481  0.87551189  0.12449110
   0.12510684  0.87547603  0.37460289
   0.12495457  0.87459208  0.62495694
   0.12462517  0.87517480  0.87442219
   0.37516514  0.12517091  0.12516900
   0.37540852  0.12472654  0.37527996
   0.37517034  0.12513375  0.62525959
   0.37476595  0.12491467  0.87495069
   0.37526465  0.37473869  0.12513576
   0.37516820  0.37496737  0.37474609
   0.37456214  0.37525084  0.62491119
   0.37512711  0.37529223  0.87488987
   0.37490067  0.62505964  0.12497567
   0.37494871  0.62500339  0.37442851
   0.37504565  0.62515367  0.62488214
   0.37488673  0.62478597  0.87519225
   0.37467917  0.87540330  0.12541292
   0.37469826  0.87495142  0.37514010
   0.37496981  0.87478292  0.62539745
   0.37451883  0.87489423  0.87549408
   0.62505654  0.12489783  0.12538255
   0.62497493  0.12461352  0.37549603
   0.62503435  0.12514835  0.62544717
   0.62476862  0.12500539  0.87519867
   0.62504755  0.37470541  0.12479289
   0.62516112  0.37461503  0.37501142
   0.62520316  0.37490802  0.62507368
   0.62541226  0.37499538  0.87515487
   0.62485766  0.62487769  0.12497649
   0.62498182  0.62492477  0.37446709
   0.62511244  0.62482319  0.62492194
   0.62510154  0.62481540  0.87521196
   0.62508723  0.87465295  0.12521436
   0.62511113  0.87476845  0.37484550
   0.62492690  0.87451939  0.62489753
   0.62485199  0.87485929  0.87521388
   0.87459365  0.12500178  0.12487990
   0.87481757  0.12495578  0.37481355
   0.87519559  0.12495770  0.62506441
   0.87475607  0.12500102  0.87478693
   0.87490515  0.37496514  0.12526419
   0.87501355  0.37475523  0.37498941
   0.87517446  0.37526951  0.62526585
   0.87500384  0.37480160  0.87533781
   0.87490924  0.62481870  0.12526397
   0.87494773  0.62459749  0.37487664
   0.87520295  0.62515254  0.62527245
   0.87516338  0.62442114  0.87537582
   0.87513517  0.87511711  0.12476487
   0.87518043  0.87479291  0.37457445
   0.87482793  0.87513917  0.62488468
   0.87465640  0.87509273  0.87481928
unknown system                          
           1
    12.655278    0.000003   -0.000020
     0.000003   12.655208   -0.000045
    -0.000020   -0.000045   12.655264
   W 
 128
Direct configuration=     3
   0.00099180  0.00003905  0.99897770
   0.00041990  0.00076342  0.24936690
   0.00004091  0.00003709  0.50023686
   0.99983952  0.00043553  0.74960367
   0.99862551  0.24925992 -0.00005021
  -0.00003698  0.25002664  0.24909725
   0.99991848  0.25049098  0.50055303
  -0.00016605  0.25042094  0.75018134
  -0.00006667  0.49914582  0.00107413
   0.00023308  0.49942867  0.25067316
   0.99946870  0.49955242  0.50018659
   0.00035374  0.50026776  0.75084935
   0.99982783  0.75009508 -0.00011764
   0.00032229  0.74953962  0.24972703
   0.99918602  0.74968701  0.49991113
   0.99870839  0.75013106  0.75048312
   0.25011398 -0.00008523  0.99970799
   0.25015348  0.00120336  0.25033986
   0.24976181  0.00026428  0.50032475
   0.25035154  0.00006100  0.75036701
   0.24935617  0.25014180  0.99958412
   0.25083614  0.24922356  0.24949366
   0.25050697  0.24948528  0.50004154
   0.24974721  0.25008613  0.75056160
   0.25010795  0.50009113  0.00034679
   0.24985990  0.50003635  0.25037943
   0.24917833  0.50117271  0.49957914
   0.25008881  0.50123595  0.74993735
   0.24888263  0.74994390  0.00002234
   0.25068015  0.75032985  0.24981552
   0.24885222  0.74956416  0.50000063
   0.25023449  0.75007954  0.75056876
   0.50070822 -0.00002908  0.00061619
   0.50093116  0.99945185  0.25025068
   0.49981215  0.99967971  0.50000815
   0.49970014  0.00014106  0.74951593
   0.50027559  0.25109089  0.99903922
   0.50056948  0.24893480  0.25046225
   0.49974555  0.25030151  0.50027784
   0.50029096  0.25132467  0.75019127
   0.49984253  0.50033508  0.00010753
   0.50013232  0.49932861  0.24942031
   0.49927796  0.50067476  0.49937533
   0.49995779  0.50055796  0.75028311
   0.49901725  0.74996984  0.00010549
   0.50024152  0.75021289  0.24999640
   0.49984997  0.75039651  0.49879831
   0.49944313  0.75026198  0.75118313
   0.75061978  0.99960842 -0.00004184
   0.75032489  0.99934855  0.25011902
   0.74933689  0.99984826  0.49937513
   0.74933807  0.00034100  0.74932803
   0.74974849  0.24923989  0.00053896
   0.74935581  0.24967433  0.24977699
   0.74996680  0.24869425  0.50047592
   0.75094254  0.25055325  0.75015693
   0.75011389  0.49949331  0.00028397
   0.74879165  0.49932069  0.24935990
   0.75020138  0.50010303  0.49981797
   0.75026162  0.49871334  0.75057316
   0.75076119  0.74963578  0.00028630
   0.74992485  0.74958556  0.25019331
   0.75004841  0.74967489  0.49976324
   0.75023484  0.74986019  0.75039014
   0.12397210  0.12493165  0.12550188
   0.12488239  0.12635228  0.37551250
   0.12505631  0.12473265  0.62487306
   0.12411934  0.12510475  0.87494059
   0.12526367  0.37472901  0.12368502
   0.12462618  0.37522860  0.37365291
   0.12510662  0.37535586  0.62633430
   0.12543530  0.37529259  0.87580642
   0.12454648  0.62562599  0.12518469
   0.12514002  0.62525489  0.37375894
   0.12518371  0.62445711  0.62431925
   0.12604942  0.62602611  0.87442702
   0.12505102  0.87615537  0.12424358
   0.12558706  0.87595629  0.37418283
   0.12541844  0.87454088  0.62483681
   0.12409005  0.87531621  0.87419684
   0.37509774  0.12492220  0.12554632
   0.37566008  0.12420357  0.37547303
   0.37554178  0.12493158  0.62490633
   0.37494531  0.12478592  0.87464247
   0.37545252  0.37430234  0.12489410
   0.37591043  0.37553802  0.37528240
   0.37374551  0.37496003  0.62405815
   0.37564879  0.37517912  0.87533442
   0.37542610  0.62555325  0.12402010
   0.37496713  0.62488195  0.37470338
   0.37543216  0.62493538  0.62485346
   0.37536447  0.62482663  0.87557742
   0.37431462  0.87584752  0.12497012
   0.37434553  0.87492159  0.37597623
   0.37573253  0.87507906  0.62488334
   0.37519033  0.87435311  0.87630504
   0.62533474  0.12460869  0.12538832
   0.62546759  0.12360356  0.37641204
   0.62565296  0.12527619  0.62524811
   0.62401684  0.12478021  0.87531310
   0.62490812  0.37515408  0.12411525
   0.62506907  0.37454352  0.37554802
   0.62628563  0.37472692  0.62545457
   0.62576327  0.37451422  0.87479829
   0.62462543  0.62494532  0.12515462
   0.62505330  0.62523490  0.37446452
   0.62524665  0.62460637  0.62488302
   0.62469586  0.62539669  0.87466651
   0.62504665  0.87480438  0.12484794
   0.62510963  0.87564442  0.37500948
   0.62473109  0.87447469  0.62476876
   0.62434311  0.87458162  0.87549237
   0.87465671  0.12510161  0.12511917
   0.87426307  0.12482371  0.37442866
   0.87513166  0.12389012  0.62525046
   0.87539985  0.12592867  0.87463689
   0.87609727  0.37485219  0.12500405
   0.87606301  0.37466662  0.37558672
   0.87426574  0.37574154  0.62480938
   0.87452977  0.37440198  0.87522029
   0.87497671  0.62542685  0.12487084
   0.87505556  0.62476799  0.37543675
   0.87513698  0.62576025  0.62511320
   0.87494418  0.62443941  0.87550326
   0.87495928  0.87519864  0.12449147
   0.87534846  0.87478801  0.37443786
   0.87485464  0.87589072  0.62442168
   0.87451892  0.87466177  0.87536927
