LAMMPS (15 Apr 2020)
OMP_NUM_THREADS environment is not set. Defaulting to 1 thread. (src/comm.cpp:94)
  using 1 OpenMP thread(s) per MPI task
#The input script
units           metal
boundary        p p p
dimension 3
atom_style      atomic

lattice         fcc  3.48
Lattice spacing in x,y,z = 3.48 3.48 3.48
region  copper  block  0 3.48 0 3.48 0 3.48 units box
create_box   1 copper
Created orthogonal box = (0 0 0) to (3.48 3.48 3.48)
  1 by 2 by 2 MPI processor grid
create_atoms 1 region copper
Created 4 atoms
  create_atoms CPU = 0.00156952 secs
mass  1  63.546  # grams/mole
replicate 3 3 3
  orthogonal box = (0 0 0) to (10.44 10.44 10.44)
  2 by 1 by 2 MPI processor grid
  108 atoms
  replicate CPU = 0.000414791 secs

pair_style morse 5
pair_coeff * * 0.3429 1.3588 2.6260 # D0 alpha r0

thermo_style   custom step temp press vol etotal
timestep       0.0005

# equilibration
velocity        all create 6000.0 4928459 rot yes dist gaussian
fix 1 all npt temp 2500.0 2500.0 200.0 iso 0.0 0.0 200.0
thermo         1000
run            200000
Neighbor list info ...
  update every 1 steps, delay 10 steps, check yes
  max neighbors/atom: 2000, page size: 100000
  master list distance cutoff = 7
  ghost atom cutoff = 7
  binsize = 3.5, bins = 3 3 3
  1 neighbor lists, perpetual/occasional/extra = 1 0 0
  (1) pair morse, perpetual
      attributes: half, newton on
      pair build: half/bin/atomonly/newton
      stencil: half/bin/3d/newton
      bin: standard
Per MPI rank memory allocation (min/avg/max) = 3.103 | 3.103 | 3.103 Mbytes
Step Temp Press Volume TotEng 
       0         6000    -100570.1    1137.8932   -294.07282 
    1000    2427.6053   -42.668586    1137.8908   -288.69696 
    2000    2492.5916   -2391.5208    1137.8875   -289.09279 
    3000    2335.6754    2809.9429    1137.8827   -288.21393 
    4000    2796.0427   -8207.0643     1137.877   -288.83043 
    5000    2709.1387   -5562.9975    1137.8698   -288.96422 
    6000    2513.9107   -1630.4499    1137.8617   -288.69487 
    7000    2168.5534    6890.9391    1137.8542   -288.69837 
    8000    2663.8882   -4684.6962    1137.8461   -288.61003 
    9000    2415.4832    -1184.621    1137.8368    -289.1765 
   10000    2382.8824    3473.1686    1137.8261   -288.61951 
   11000    2606.4626   -7807.7258    1137.8159   -289.31933 
   12000    2662.3287   -7447.3109    1137.8052   -288.96852 
   13000    2519.9304   -889.09176     1137.794   -289.26788 
   14000    2668.0138   -5619.4049    1137.7818   -289.24065 
   15000    2780.4942   -9122.1603     1137.768   -288.30399 
   16000    2539.6075   -741.81904    1137.7527   -288.97136 
   17000    2330.6247    693.37846    1137.7366   -288.71381 
   18000    2344.3914    6532.4808    1137.7205   -288.84747 
   19000    2551.4804   -4508.6146    1137.7045    -288.9581 
   20000    2340.2296    6482.4478    1137.6882   -288.36707 
   21000    2648.6689   -7940.4498    1137.6718   -289.70475 
   22000    2620.1401   -3596.6373    1137.6543   -288.68444 
   23000    2498.0069   -2623.4522    1137.6365   -289.05386 
   24000    2358.1464    3997.6703     1137.618    -288.7362 
   25000    2587.5114   -130.00698    1137.5982   -289.26291 
   26000    2490.1111   -946.56304    1137.5772   -289.05445 
   27000    2337.3449    5562.7635    1137.5561   -288.15089 
   28000    2539.2044    33.432885    1137.5351   -288.49753 
   29000     2506.937   -310.48718    1137.5135   -288.78969 
   30000    2599.0083   -1018.7369    1137.4917    -288.2336 
   31000     2468.647   -680.08736    1137.4701   -288.60675 
   32000    2467.4068    -1239.565    1137.4478   -288.58217 
   33000    2301.8362     4019.872    1137.4255   -288.11892 
   34000    2336.3471    1915.1932    1137.4029   -289.02921 
   35000    2364.9362    5362.7422    1137.3815   -288.10015 
   36000    2432.0344    467.61821    1137.3615   -288.79027 
   37000    2444.5453   -1975.5435    1137.3422   -289.07512 
   38000    2383.5751   -129.19409    1137.3236   -289.37318 
   39000    2455.8229   -177.33185     1137.305   -288.59714 
   40000    2501.1325   -1474.1575    1137.2854   -288.72961 
   41000    2354.6494   -1148.8675    1137.2663   -288.51876 
   42000    2587.7632    -2857.027    1137.2481   -288.97492 
   43000    2493.4408    888.21477    1137.2299    -289.0878 
   44000      2584.05   -3426.3582    1137.2119   -288.93395 
   45000    2448.5294   -2932.5408    1137.1942   -289.49111 
   46000    2385.4105    3497.1754    1137.1765   -288.24092 
   47000    2325.9914    5934.3003    1137.1588   -288.31575 
   48000    2506.2037   -4858.3975    1137.1416   -288.76777 
   49000    2500.9889    -1095.258    1137.1236   -289.02666 
   50000    2554.6528   -3069.5564    1137.1065   -289.00521 
   51000    2503.2953   -1100.3063    1137.0899   -288.54366 
   52000    2423.0245    1224.2198    1137.0737   -288.32533 
   53000    2487.0619     845.1035    1137.0585   -288.80723 
   54000    2683.9503   -4299.6822    1137.0434   -288.60114 
   55000    2702.9638   -2506.5885    1137.0273   -288.54147 
   56000     2440.162    529.31126    1137.0107   -288.96422 
   57000     2403.932    8501.2639    1136.9942   -288.16158 
   58000    2461.0593   -770.33099    1136.9776   -289.22925 
   59000     2565.764   -5269.3484    1136.9597   -289.56956 
   60000    2591.7024   -1868.2142    1136.9407   -288.84657 
   61000    2259.0824    2776.4806    1136.9211   -288.42009 
   62000    2557.9686    1218.9373    1136.9026   -288.17587 
   63000    2670.0211   -6631.8742    1136.8858    -289.1379 
   64000    2393.8079   -348.28638    1136.8697   -288.71428 
   65000    2229.7039    5038.6295    1136.8522    -288.6329 
   66000    2539.4622   -2356.5688    1136.8333   -289.22407 
   67000     2529.276   -3154.4054    1136.8135   -288.95313 
   68000    2945.2078   -14407.759    1136.7938   -289.79838 
   69000    2536.0603    3248.3689    1136.7731   -288.43263 
   70000    2268.7709    5203.4268    1136.7539   -288.33096 
   71000    2401.3871     4121.748    1136.7353   -288.09401 
   72000     2407.497    1339.5463     1136.717    -287.9408 
   73000    2317.1235    3763.9048    1136.7006   -288.36496 
   74000    2714.8494   -8214.8714    1136.6862   -289.14245 
   75000    2456.1228    2843.3612    1136.6722   -288.64358 
   76000    2470.4866    298.45991    1136.6601   -288.66137 
   77000    2733.5607   -5826.8191    1136.6498   -288.82358 
   78000    2190.4319    7762.7089    1136.6389   -288.50766 
   79000    2755.2394   -9475.7228    1136.6292   -289.06776 
   80000    2375.8843    1602.8914    1136.6194   -288.60993 
   81000    2667.6651   -3038.3703    1136.6097   -288.86971 
   82000    2631.6721   -5396.4124    1136.5994   -289.02792 
   83000    2585.8497   -426.17346    1136.5888   -289.32502 
   84000     2517.151    -135.9099    1136.5788   -289.16298 
   85000     2630.657   -3188.5846    1136.5694   -289.42745 
   86000    2440.6795    3437.5253    1136.5604   -288.57488 
   87000     2457.179    373.36504    1136.5523   -288.67582 
   88000     2487.362    2257.8806    1136.5437   -288.67469 
   89000    2422.4003    5195.1645    1136.5357   -287.93078 
   90000    2295.0858      3358.96    1136.5285   -289.05923 
   91000    2616.5121   -3740.6719    1136.5213   -288.81402 
   92000    2349.3263     5522.535    1136.5136   -288.65371 
   93000    2581.3695   -2869.1535    1136.5057   -288.35626 
   94000    2474.0947     4746.201     1136.498   -288.38861 
   95000    2625.7139   -4009.2026    1136.4915   -289.08843 
   96000    2540.9128   -1929.4497    1136.4857   -288.60601 
   97000    2481.2017    4443.8723    1136.4811   -287.96417 
   98000    2482.4673    4081.3913    1136.4765   -288.38956 
   99000    2511.8203    -1225.804    1136.4719   -289.32205 
  100000    2221.3304    10586.949    1136.4662   -287.95844 
  101000    2664.8627   -626.38427    1136.4621    -288.9945 
  102000    2366.8592    1509.8774    1136.4585   -288.96758 
  103000    2548.0174    2031.9158    1136.4551   -288.86697 
  104000    2874.5334   -8839.2692    1136.4529   -288.68074 
  105000    2462.5982    88.264703      1136.45   -288.73366 
  106000    2522.1944   -2652.7034    1136.4483   -288.50701 
  107000    2279.5248    2402.6774    1136.4461   -288.85538 
  108000     2535.682    351.50815    1136.4439   -288.28903 
  109000    2317.7759    2843.7191    1136.4428    -288.6989 
  110000    2807.4358   -6929.7868    1136.4418   -288.69337 
  111000    2432.4519   -740.62662    1136.4413   -288.82887 
  112000    2347.5811     4714.365    1136.4428   -288.63935 
  113000    2591.2403    -4064.336    1136.4447   -288.77104 
  114000    2386.0901     3161.996     1136.446   -288.41974 
  115000    2349.0527    6196.2948    1136.4464   -287.96641 
  116000    2555.6184   -641.52128    1136.4474   -288.66388 
  117000    2438.5212    863.16868    1136.4492   -288.63427 
  118000     2524.693    4412.2722    1136.4513   -288.82211 
  119000    2568.3866   -3277.5482    1136.4546   -288.97654 
  120000    2528.0797   -1178.0882    1136.4578   -288.90117 
  121000    2482.7142    1166.9746    1136.4614   -288.92446 
  122000    2467.8205    2292.5489    1136.4664   -289.02938 
  123000    2320.6185    6049.1741    1136.4711   -288.79145 
  124000    2377.1009     4045.108    1136.4769   -289.05931 
  125000    2335.6156    5003.0591    1136.4838   -288.41436 
  126000    2658.3786   -3635.1663     1136.491   -288.70228 
  127000    2450.6577   -1831.4562    1136.4983   -289.02006 
  128000    2518.5581    4370.1228    1136.5062   -287.74516 
  129000     2601.305   -925.85232    1136.5152   -288.54907 
  130000    2649.6699   -6101.0306    1136.5246   -289.05325 
  131000    2535.8441    853.14289    1136.5347   -288.30283 
  132000    2563.7854   -2228.4313    1136.5463   -288.81495 
  133000    2295.4036    1624.0975    1136.5591   -288.84926 
  134000    2763.1564   -8379.1967    1136.5722   -288.96131 
  135000    2225.6927     5767.895    1136.5864   -289.19085 
  136000    2395.8456    3970.4288       1136.6   -287.93491 
  137000    2568.7061   -685.00543    1136.6141   -288.67683 
  138000     2553.985    -1313.736    1136.6295   -288.23007 
  139000    2456.7952     680.9071    1136.6466   -288.97177 
  140000    2455.4882    2066.1366    1136.6642   -288.30516 
  141000    2667.5573   -1878.2126    1136.6817   -288.86006 
  142000    2251.1937    6959.3016     1136.699   -288.58873 
  143000    2742.5358   -6045.3766    1136.7173   -289.04036 
  144000    2486.9212    1116.8893    1136.7356   -288.55268 
  145000    2588.3083      -6508.9    1136.7539   -289.32682 
  146000    2576.1564    -152.2744    1136.7706   -288.83722 
  147000    2804.7556   -1947.1074    1136.7877   -288.16104 
  148000    2625.7206   -2733.4609    1136.8054   -288.45386 
  149000    2673.4699   -6695.9095    1136.8228   -288.88518 
  150000    2622.8691   -4036.9698    1136.8402   -288.83583 
  151000    2485.2028    938.65827    1136.8572   -288.67513 
  152000    2349.4498    5448.0891    1136.8746   -288.67543 
  153000    2449.0547    219.39061    1136.8924   -288.45718 
  154000    2307.5369      5583.14    1136.9106   -288.43095 
  155000    2580.4268    2252.4512    1136.9292   -288.54199 
  156000    2539.7574   -4875.6345    1136.9469   -289.26168 
  157000    2402.8624    334.92117    1136.9627   -288.72911 
  158000    2095.3889    4959.0197    1136.9788   -288.33253 
  159000    2557.2776    1649.1913    1136.9946   -288.75582 
  160000    2376.5883    4374.0033     1137.011   -288.75166 
  161000    2503.0692    2058.9959    1137.0276   -288.08325 
  162000    2354.0218    6949.7015    1137.0448   -288.00284 
  163000    2602.6912    -2822.681    1137.0624   -288.59495 
  164000    2716.5742   -1092.1423    1137.0798   -288.02632 
  165000    2534.9981   -933.59462    1137.0986   -288.56044 
  166000     2505.467    -2011.101    1137.1177   -288.69658 
  167000    2605.7755   -1859.3132    1137.1362   -288.62027 
  168000    2486.7723   -3227.1643    1137.1546   -288.72559 
  169000     2406.881    904.01534     1137.173   -288.91098 
  170000     2588.979   -3997.1235    1137.1929   -288.56693 
  171000    2470.0329    1073.9716    1137.2133   -289.07135 
  172000      2403.03    2545.0196    1137.2345    -288.6974 
  173000    2207.8149    14328.899    1137.2558   -288.15825 
  174000    2561.3334   -430.30546     1137.278    -288.6305 
  175000    2370.3946    1558.0351    1137.3018   -288.54916 
  176000     2866.719   -8878.9884    1137.3264   -288.75574 
  177000    2321.7513    949.91937    1137.3513   -289.20574 
  178000    2719.2216   -3254.1605    1137.3764   -288.46058 
  179000    2673.6429   -5572.9393    1137.4022   -288.80617 
  180000    2616.4326   -3232.7436    1137.4284   -288.08485 
  181000    2710.9265    -8308.095    1137.4542    -289.0227 
  182000    2515.2488    1179.9219      1137.48   -288.56831 
  183000    2394.3268    1972.2613    1137.5056   -288.09211 
  184000    2065.1136    13502.002    1137.5313   -287.96418 
  185000    2494.7223     2506.192    1137.5565   -288.52807 
  186000     2635.736   -1151.3088    1137.5819   -288.58358 
  187000     2320.119    7415.6745    1137.6071   -288.29138 
  188000    2348.2264    3387.8557    1137.6334    -288.9047 
  189000    2465.9269    5267.8546    1137.6586   -288.58393 
  190000    2583.6423   -132.59009     1137.683   -288.71775 
  191000    2630.1356   -2976.7709    1137.7065   -288.47504 
  192000    2235.2838    7451.6801     1137.729   -288.15304 
  193000    2568.7692   -5524.8165    1137.7523   -289.37844 
  194000    2490.2203    1057.8649    1137.7759   -288.25614 
  195000    2420.5307    3072.2608    1137.7981   -288.25492 
  196000     2437.271   -2311.2455    1137.8201   -288.64913 
  197000     2461.336   -1039.7383    1137.8423   -287.92467 
  198000    2485.8672   -237.82741    1137.8649   -288.00302 
  199000    2565.4446   -23.398809     1137.888   -288.48041 
  200000     2549.736    1907.5727    1137.9112   -288.45239 
Loop time of 12.1519 on 4 procs for 200000 steps with 108 atoms

Performance: 711.001 ns/day, 0.034 hours/ns, 16458.358 timesteps/s
99.5% CPU use with 4 MPI tasks x 1 OpenMP threads

MPI task timing breakdown:
Section |  min time  |  avg time  |  max time  |%varavg| %total
---------------------------------------------------------------
Pair    | 5.7837     | 5.8876     | 6.0436     |   4.0 | 48.45
Neigh   | 0.090771   | 0.091987   | 0.093579   |   0.3 |  0.76
Comm    | 4.7667     | 4.919      | 5.0425     |   4.5 | 40.48
Output  | 0.0023754  | 0.0028448  | 0.004212   |   1.5 |  0.02
Modify  | 0.94561    | 0.96853    | 0.98766    |   1.9 |  7.97
Other   |            | 0.2819     |            |       |  2.32

Nlocal:    27 ave 29 max 25 min
Histogram: 1 0 1 0 0 0 0 1 0 1
Nghost:    827.75 ave 833 max 821 min
Histogram: 1 0 0 1 0 0 0 0 0 2
Neighs:    1849.75 ave 2027 max 1703 min
Histogram: 1 1 0 0 0 0 1 0 0 1

Total # of neighbors = 7399
Ave neighs/atom = 68.5093
Neighbor list builds = 1655
Dangerous builds = 0
unfix 1

#calculation
reset_timestep 0

compute        peratom all pe/atom
compute        pe all reduce sum c_peratom

fix 1 all nve
thermo          1000
dump           1 all custom 100 copper_liquid.dump id type x y z c_peratom
dump           2 all xyz 100 copper_liquid.xyz
run            260000
Per MPI rank memory allocation (min/avg/max) = 5.623 | 5.623 | 5.623 Mbytes
Step Temp Press Volume TotEng 
       0     2549.736    1907.5727    1137.9112   -288.45239 
    1000    2522.3581   -3297.8562    1137.9112   -288.58694 
    2000    2495.7263   -326.07969    1137.9112   -288.45011 
    3000    2644.5411   -5076.5234    1137.9112   -288.73831 
    4000    2504.5122   -2458.8484    1137.9112    -288.5527 
    5000    2471.2484   -1062.8001    1137.9112    -288.0481 
    6000    2379.5842   -803.89999    1137.9112   -288.69349 
    7000    2443.7701    648.01031    1137.9112   -287.91697 
    8000    2511.9444    1150.2258    1137.9112   -289.06658 
    9000    2421.4516    4942.1704    1137.9112   -288.85139 
   10000    2450.0192   -1456.1123    1137.9112   -289.00936 
   11000    2306.9159    3793.4913    1137.9112   -288.74458 
   12000      2326.38    4283.9046    1137.9112   -288.16052 
   13000    2449.5799    594.74583    1137.9112   -288.66055 
   14000    2205.6018    9268.9907    1137.9112   -287.82843 
   15000     2435.899    2935.8515    1137.9112   -288.57912 
   16000    2586.0612   -3665.6228    1137.9112   -288.04266 
   17000    2661.3455   -3021.7784    1137.9112   -288.03966 
   18000    2494.9639    -1138.112    1137.9112   -288.64831 
   19000    2544.4468   -2335.1712    1137.9112   -288.67981 
   20000     2607.326   -3266.9247    1137.9112    -288.1455 
   21000    2324.6012    2701.4118    1137.9112   -288.95255 
   22000     2684.184   -11768.177    1137.9112   -289.85448 
   23000    2376.2703   -2458.6458    1137.9112   -288.65142 
   24000    2366.4147    4010.2284    1137.9112   -288.62521 
   25000    2566.8334    -4441.243    1137.9112   -288.72312 
   26000    2392.6147    2802.7912    1137.9112   -288.66644 
   27000    2378.1092    2790.4346    1137.9112   -288.55898 
   28000    2520.0747    1042.5323    1137.9112   -288.61277 
   29000     2278.955    2305.7472    1137.9112   -288.25747 
   30000    2589.2268   -4990.6689    1137.9112    -288.9855 
   31000    2280.2628    3573.0776    1137.9112   -288.70148 
   32000    2643.4176   -6969.7858    1137.9112   -288.67743 
   33000    2448.1929    2304.6944    1137.9112   -288.83115 
   34000    2827.7381   -8074.7199    1137.9112   -288.01898 
   35000    2472.7364    346.50138    1137.9112   -288.63403 
   36000    2360.8265    3346.6131    1137.9112   -288.79772 
   37000    2348.6004    170.02408    1137.9112    -288.5009 
   38000    2469.6398     5217.111    1137.9112    -288.3388 
   39000    2418.0268   -67.907639    1137.9112   -288.62656 
   40000    2691.1305   -7580.1912    1137.9112   -289.08224 
   41000    2404.5629    3836.8898    1137.9112   -288.01504 
   42000    2247.7663    3050.7985    1137.9112   -288.94241 
   43000    2652.3057   -6108.1626    1137.9112   -288.93764 
   44000    2423.4968    1416.7028    1137.9112   -288.72091 
   45000    2619.4177   -4793.8197    1137.9112   -288.40754 
   46000    2416.2742   -2274.9001    1137.9112   -288.22044 
   47000    2263.5081    3045.4773    1137.9112   -288.86487 
   48000    2921.8539   -7584.1636    1137.9112   -289.02327 
   49000    2345.6228    615.27175    1137.9112   -288.86758 
   50000    2457.5893    4285.2566    1137.9112    -288.2034 
   51000    2634.1011   -6118.8251    1137.9112   -288.79043 
   52000    2501.6356   -872.88523    1137.9112   -288.30419 
   53000    2429.3926   -3371.7606    1137.9112   -288.97631 
   54000    2145.9114    8845.4523    1137.9112   -289.06045 
   55000    2625.2238   -4357.1992    1137.9112   -288.87667 
   56000     2276.608    4601.5393    1137.9112   -288.41433 
   57000    2480.9974    930.19495    1137.9112   -287.82854 
   58000    2664.4914   -4517.6932    1137.9112   -288.54953 
   59000    2525.4912    1888.3225    1137.9112   -288.20133 
   60000    2560.6155   -5657.0309    1137.9112   -288.87066 
   61000    2427.2348    2183.6564    1137.9112   -288.44163 
   62000    2448.6009   -650.02286    1137.9112   -288.77061 
   63000    2503.5591   -3877.5519    1137.9112   -288.95272 
   64000     2472.945   -2210.6217    1137.9112    -288.2922 
   65000    2521.1506   -4159.7689    1137.9112   -289.54432 
   66000    2695.0451   -7545.4936    1137.9112     -288.664 
   67000    2547.3624   -3217.6149    1137.9112   -288.56346 
   68000    2597.3731   -1439.3631    1137.9112   -288.72091 
   69000    2335.1277     7694.475    1137.9112   -287.92374 
   70000    2694.4579   -3165.2288    1137.9112   -288.51189 
   71000    2313.8792    3878.3695    1137.9112   -288.56772 
   72000    2591.7794   -4749.0129    1137.9112   -289.10514 
   73000    2657.4993    1267.7208    1137.9112   -288.24145 
   74000    2569.8496   -3175.0249    1137.9112   -288.50432 
   75000    2556.3184   -3308.7709    1137.9112    -288.7702 
   76000    2280.0177    888.84458    1137.9112   -289.25609 
   77000    2413.0936    3070.6627    1137.9112   -288.45561 
   78000    2409.8979    3600.7853    1137.9112   -288.82501 
   79000    2410.9312    711.27045    1137.9112   -288.12789 
   80000    2545.5328   -4039.7723    1137.9112   -289.03052 
   81000    2773.3763   -9068.4698    1137.9112   -289.35261 
   82000    2373.4228    597.11642    1137.9112   -288.49637 
   83000    2348.4293    5828.1745    1137.9112   -288.43581 
   84000    2546.7448   -507.93053    1137.9112   -287.84325 
   85000    2318.4426    2479.9261    1137.9112    -289.1316 
   86000    2524.3988   -78.025346    1137.9112   -288.49127 
   87000     2403.947    2538.0647    1137.9112   -288.65679 
   88000     2264.261    2643.1756    1137.9112   -288.70661 
   89000    2420.8226    3211.5426    1137.9112   -288.28372 
   90000    2413.3259     2234.504    1137.9112   -288.52564 
   91000    2604.4576   -5197.5452    1137.9112   -288.33831 
   92000    2602.3955   -3525.0995    1137.9112   -288.07577 
   93000    2538.9854   -3512.4443    1137.9112   -289.01165 
   94000    2654.2717   -2425.1811    1137.9112   -288.68859 
   95000     2301.911    8262.0264    1137.9112    -288.3133 
   96000    2369.6579    26.264217    1137.9112   -288.11782 
   97000    2455.5982    1526.5853    1137.9112   -288.25147 
   98000      2719.11   -9042.4267    1137.9112   -289.11411 
   99000    2424.2802    -2693.234    1137.9112   -288.69011 
  100000    2505.3825   -2445.9505    1137.9112   -288.07499 
  101000    2636.2785    1354.1643    1137.9112   -287.74894 
  102000    2653.2832    -2808.764    1137.9112   -288.58042 
  103000    2548.3994   -4529.6671    1137.9112   -288.45214 
  104000    2410.6001   -1364.3069    1137.9112   -288.26691 
  105000     2373.676    8074.1407    1137.9112   -287.86187 
  106000    2627.7701   -2971.6494    1137.9112   -288.45407 
  107000    2447.5833    2250.3793    1137.9112   -288.79933 
  108000    2477.9399    1439.1929    1137.9112   -288.53425 
  109000    2341.6325    412.05085    1137.9112   -289.41903 
  110000    2503.9948     1854.196    1137.9112   -288.51355 
  111000    2327.9682    3286.9006    1137.9112   -288.24641 
  112000    2473.5042    -456.2055    1137.9112    -288.6174 
  113000    2602.5334   -3208.2634    1137.9112   -288.85431 
  114000    2264.2204    5883.8928    1137.9112   -288.31819 
  115000    2370.2481    2616.4674    1137.9112   -288.74616 
  116000    2566.0004   -1686.2082    1137.9112   -288.29329 
  117000    2517.8083   -31.917482    1137.9112   -288.76719 
  118000    2418.6358    702.20049    1137.9112   -288.50262 
  119000    2556.1817   -1564.5466    1137.9112   -288.01916 
  120000    2467.1879   -3350.1196    1137.9112   -288.71673 
  121000    2392.1565     1777.117    1137.9112   -288.39389 
  122000    2341.7978    5404.7878    1137.9112   -287.75332 
  123000    2331.8032    6563.0055    1137.9112   -288.45175 
  124000    2251.3296     6831.328    1137.9112   -288.32002 
  125000    2601.4808   -2094.9671    1137.9112   -288.96878 
  126000    2491.0777    1095.1589    1137.9112   -288.48729 
  127000    2486.5109   -4076.1733    1137.9112   -288.56798 
  128000     2364.949    1940.3337    1137.9112   -288.56296 
  129000    2521.9891    -1074.464    1137.9112   -288.29733 
  130000    2562.6017   -967.98756    1137.9112   -288.51256 
  131000    2691.6591   -1795.3803    1137.9112    -288.0591 
  132000    2555.0275   -3690.6927    1137.9112   -288.94372 
  133000    2481.6303    -24.90899    1137.9112   -287.71316 
  134000    2356.6247    1384.6563    1137.9112   -288.40651 
  135000    2477.6306   -4453.2087    1137.9112   -289.31391 
  136000    2295.1832     6939.471    1137.9112   -287.92709 
  137000    2630.1559   -3290.0812    1137.9112   -288.16568 
  138000    2527.0371    -2561.536    1137.9112   -288.10575 
  139000    2892.3931   -14572.816    1137.9112   -289.38799 
  140000    2427.2554    3131.7374    1137.9112   -288.51424 
  141000    2526.1227   -4906.7613    1137.9112   -289.12869 
  142000    2397.0401    139.97371    1137.9112   -288.78872 
  143000    2697.8783   -4385.7324    1137.9112   -288.62785 
  144000    2460.4472    4986.9948    1137.9112   -288.22661 
  145000    2410.7914    919.79909    1137.9112   -288.52117 
  146000    2496.5567    1573.6392    1137.9112   -288.57691 
  147000     2268.004     5003.161    1137.9112   -288.38965 
  148000    2434.4171    1347.3895    1137.9112   -288.40951 
  149000    2173.9538    9791.2881    1137.9112   -288.84448 
  150000    2812.4157   -11753.914    1137.9112   -288.76418 
  151000    2442.4422    421.03188    1137.9112   -288.38493 
  152000    2643.3783   -4303.0072    1137.9112   -289.00179 
  153000    2507.4841    5475.7155    1137.9112    -287.6664 
  154000    2424.7395    1647.5915    1137.9112   -288.54514 
  155000    2170.5725    5805.2223    1137.9112   -288.46556 
  156000    2425.5447    2494.9539    1137.9112   -288.30235 
  157000    2553.9821    -2205.527    1137.9112   -288.54222 
  158000    2327.3342    8652.7205    1137.9112   -287.41894 
  159000    2467.0844   -1866.8238    1137.9112   -289.36435 
  160000    2477.4835    542.71845    1137.9112   -289.06573 
  161000    2595.5839   -2099.7244    1137.9112    -288.0479 
  162000    2351.8698    4342.6558    1137.9112   -288.12791 
  163000    2557.6729   -2863.0851    1137.9112   -289.01336 
  164000    2378.2795    1763.9085    1137.9112   -288.74563 
  165000    2620.6598   -6062.9677    1137.9112     -288.851 
  166000    2444.4657    985.37723    1137.9112   -288.57674 
  167000    2986.7883   -16603.458    1137.9112   -289.21771 
  168000    2661.9914   -4268.7061    1137.9112    -288.7884 
  169000    2438.4979    6424.6237    1137.9112   -288.03755 
  170000    2231.3827    5146.9957    1137.9112   -287.93526 
  171000    2638.4493   -5976.6075    1137.9112   -289.09003 
  172000    2677.4963   -7655.8663    1137.9112    -288.3722 
  173000    2605.6222    -4755.771    1137.9112   -289.17907 
  174000    2494.3477    2795.9222    1137.9112    -288.5132 
  175000    2601.6663   -5124.6931    1137.9112   -288.94365 
  176000    2473.8252    897.20914    1137.9112    -288.4562 
  177000    2379.3573    1913.1218    1137.9112   -288.59657 
  178000    2295.8893    3757.2428    1137.9112   -288.08438 
  179000    2569.0707   -799.99967    1137.9112   -288.26909 
  180000    2567.6274    603.36267    1137.9112   -288.61489 
  181000    2471.9117    40.146387    1137.9112   -288.80836 
  182000    2556.1464   -2266.6327    1137.9112    -287.9521 
  183000     2404.232   -793.09931    1137.9112   -288.64259 
  184000    2605.1603   -2353.7263    1137.9112   -288.58558 
  185000    2327.5065    4690.9819    1137.9112   -288.24354 
  186000    2816.7637    -13382.13    1137.9112   -289.36707 
  187000    2409.4117   -659.41706    1137.9112   -288.24836 
  188000    2646.4232   -1980.2365    1137.9112   -288.12201 
  189000    2651.2494   -7129.1135    1137.9112   -289.21914 
  190000    2631.6583   -3665.1706    1137.9112   -289.00071 
  191000    2633.7259   -172.88542    1137.9112   -288.33073 
  192000    2559.7007   -1932.6948    1137.9112   -289.27068 
  193000     2408.992    2341.3983    1137.9112   -288.57278 
  194000    2348.4191    3033.8327    1137.9112   -288.46845 
  195000     2488.245    1951.1364    1137.9112   -288.14869 
  196000    2262.5168    8604.8484    1137.9112   -288.41291 
  197000    2810.5201   -8233.2309    1137.9112   -288.04141 
  198000    2638.1946   -3268.5132    1137.9112    -287.8798 
  199000    2423.4989   -2785.6919    1137.9112   -288.51491 
  200000    2390.4715   -1243.1554    1137.9112   -289.34859 
  201000    2517.7195    381.08805    1137.9112   -288.68187 
  202000    2510.5014    2357.2018    1137.9112   -288.38662 
  203000    2539.0223    1747.6169    1137.9112   -288.14533 
  204000     2588.168     -5836.31    1137.9112   -288.70612 
  205000    2582.5244   -3480.0468    1137.9112   -288.89161 
  206000    2434.6018    -2377.082    1137.9112   -288.91456 
  207000    2661.6713   -5771.2826    1137.9112   -289.17823 
  208000    2408.7459    2156.7723    1137.9112   -288.58121 
  209000    2326.2783     3632.843    1137.9112   -287.91781 
  210000     2452.213   -4881.5104    1137.9112   -289.19958 
  211000    2488.0014   -972.68925    1137.9112    -288.5357 
  212000     2542.978   -5389.1555    1137.9112   -288.19055 
  213000    2431.2887   -3132.6968    1137.9112    -288.6747 
  214000    2516.4469   -334.89762    1137.9112   -288.70649 
  215000    2223.3791     9870.718    1137.9112   -288.20004 
  216000    2562.2411    -1537.979    1137.9112    -288.7833 
  217000    2586.2886   -409.42944    1137.9112    -287.8791 
  218000    2336.8329    568.17236    1137.9112   -287.74716 
  219000    2390.3828    6713.1845    1137.9112   -288.01137 
  220000    2607.6822   -6003.3814    1137.9112   -288.96921 
  221000    2649.9645    -405.1148    1137.9112   -288.27053 
  222000    2658.2737    -8238.194    1137.9112   -289.01477 
  223000    2497.2045    158.09543    1137.9112   -288.45034 
  224000    2553.6111    1207.8041    1137.9112   -288.55755 
  225000    2634.6176   -5957.6503    1137.9112    -289.2319 
  226000    2667.4874   -6168.2986    1137.9112   -288.51053 
  227000    2452.5278   -2106.5584    1137.9112   -288.75335 
  228000    2541.5915   -351.77661    1137.9112   -288.19525 
  229000    2346.2368     5839.429    1137.9112    -288.0311 
  230000     2423.743   -1637.7438    1137.9112   -288.99458 
  231000    2709.5296   -6803.5973    1137.9112   -288.59056 
  232000    2366.5444    18.703672    1137.9112   -288.56754 
  233000    2334.4238    3934.4969    1137.9112   -288.24547 
  234000    2314.2884    2370.0543    1137.9112   -288.45541 
  235000    2191.9487     3303.253    1137.9112   -288.77817 
  236000      2241.54    4565.8068    1137.9112   -288.51454 
  237000    2538.0619   -2061.0578    1137.9112   -288.49226 
  238000    2780.6339   -6302.9522    1137.9112   -288.25243 
  239000     2412.765    729.62299    1137.9112   -288.17478 
  240000     2615.132   -5772.6374    1137.9112   -288.42024 
  241000    2629.5629   -7002.9475    1137.9112   -288.70789 
  242000    2399.1281   -2277.6952    1137.9112    -288.6244 
  243000    2591.8802   -3671.1593    1137.9112   -289.05292 
  244000     2489.217   -1193.6278    1137.9112   -288.83321 
  245000    2289.7424    4322.6629    1137.9112   -288.56578 
  246000    2632.9761    -4988.482    1137.9112   -288.65628 
  247000    2612.5438   -1242.6249    1137.9112    -288.5277 
  248000    2506.9125    1329.8853    1137.9112   -288.50576 
  249000    2684.3325   -1136.7023    1137.9112   -288.21671 
  250000    2435.2676     442.7004    1137.9112    -288.1871 
  251000     2400.401    2377.7948    1137.9112    -288.7263 
  252000     2284.717    2458.9318    1137.9112   -288.72087 
  253000    2577.3339   -79.501934    1137.9112   -288.79671 
  254000    2534.6955   -685.70359    1137.9112    -288.6087 
  255000    2654.7052   -6523.0281    1137.9112   -288.73892 
  256000    2706.8812   -5044.6054    1137.9112    -288.1003 
  257000    2422.0231   -1021.6462    1137.9112   -288.98341 
  258000    2352.9339    5836.1276    1137.9112   -288.02589 
  259000     2436.684    3773.9502    1137.9112   -287.95078 
  260000    2596.7654   -5367.0233    1137.9112   -288.82475 
Loop time of 15.0773 on 4 procs for 260000 steps with 108 atoms

Performance: 744.961 ns/day, 0.032 hours/ns, 17244.467 timesteps/s
99.6% CPU use with 4 MPI tasks x 1 OpenMP threads

MPI task timing breakdown:
Section |  min time  |  avg time  |  max time  |%varavg| %total
---------------------------------------------------------------
Pair    | 7.1276     | 7.2345     | 7.3398     |   3.7 | 47.98
Neigh   | 0.12427    | 0.12523    | 0.1269     |   0.3 |  0.83
Comm    | 6.5622     | 6.6729     | 6.7882     |   3.9 | 44.26
Output  | 0.38279    | 0.39261    | 0.41311    |   1.9 |  2.60
Modify  | 0.092248   | 0.097385   | 0.10105    |   1.1 |  0.65
Other   |            | 0.5546     |            |       |  3.68

Nlocal:    27 ave 27 max 27 min
Histogram: 4 0 0 0 0 0 0 0 0 0
Nghost:    830.75 ave 835 max 826 min
Histogram: 1 0 0 0 1 0 1 0 0 1
Neighs:    1839.75 ave 1901 max 1748 min
Histogram: 1 0 0 0 0 1 0 0 1 1

Total # of neighbors = 7359
Ave neighs/atom = 68.1389
Neighbor list builds = 2159
Dangerous builds = 0
Total wall time: 0:00:27
