       N       E                     dE             d eps       ncg     rms          rms(c)
RMM:   1    -0.220518420942E+04   -0.22052E+04   -0.24152E+04  1700   0.193E+02    0.195E+02
RMM:   2    -0.198485416204E+04    0.22033E+03   -0.50084E+03  1357   0.670E+01    0.134E+02
RMM:   3    -0.169506990779E+04    0.28978E+03   -0.10283E+03  1018   0.279E+01    0.842E+01
RMM:   4    -0.169867343592E+04   -0.36035E+01   -0.78517E+02  1167   0.207E+01    0.500E+01
RMM:   5    -0.166567762075E+04    0.32996E+02   -0.13697E+02  1020   0.926E+00    0.278E+01
RMM:   6    -0.167271574656E+04   -0.70381E+01   -0.12715E+02  1188   0.767E+00    0.181E+01
RMM:   7    -0.166701382110E+04    0.57019E+01   -0.25315E+01  1002   0.381E+00    0.798E+00
RMM:   8    -0.166831568677E+04   -0.13019E+01   -0.33759E+01  1178   0.397E+00    0.707E+00
RMM:   9    -0.166706189895E+04    0.12538E+01   -0.31190E+00   967   0.152E+00    0.303E+00
RMM:  10    -0.166688802595E+04    0.17387E+00   -0.24452E+00  1173   0.105E+00    0.903E-01
RMM:  11    -0.166691629970E+04   -0.28274E-01   -0.29934E-01  1153   0.331E-01    0.559E-01
RMM:  12    -0.166691477228E+04    0.15274E-02   -0.65278E-02  1270   0.160E-01    0.250E-01
RMM:  13    -0.166691630963E+04   -0.15373E-02   -0.33984E-02  1197   0.119E-01    0.207E-01
RMM:  14    -0.166691604465E+04    0.26498E-03   -0.36073E-03  1079   0.371E-02    0.177E-01
RMM:  15    -0.166691525911E+04    0.78554E-03   -0.24984E-03  1122   0.375E-02    0.111E-01
RMM:  16    -0.166691488824E+04    0.37088E-03   -0.18979E-03  1158   0.300E-02    0.422E-02
RMM:  17    -0.166691485935E+04    0.28889E-04   -0.28828E-04   563   0.145E-02
    1 T=   979. E= -.16508445E+04 F= -.16669149E+04 E0= -.16669148E+04  EK= 0.16073E+02 SP= -.27E-02 SK= 0.37E-04
       N       E                     dE             d eps       ncg     rms          rms(c)
RMM:   1    -0.166676017663E+04    0.15471E+00   -0.43687E+00   920   0.252E+00    0.382E-01
RMM:   2    -0.166676477134E+04   -0.45947E-02   -0.63542E-02  1003   0.233E-01    0.309E-01
RMM:   3    -0.166676520547E+04   -0.43412E-03   -0.12237E-02  1187   0.708E-02    0.189E-01
RMM:   4    -0.166676504660E+04    0.15887E-03   -0.17711E-03   963   0.390E-02    0.387E-02
RMM:   5    -0.166676500355E+04    0.43051E-04   -0.27906E-04   598   0.128E-02    0.195E-02
RMM:   6    -0.166676500601E+04   -0.24628E-05   -0.72478E-05   535   0.810E-03
    2 T=   970. E= -.16508448E+04 F= -.16667650E+04 E0= -.16667649E+04  EK= 0.15926E+02 SP= -.57E-02 SK= 0.11E-03
       N       E                     dE             d eps       ncg     rms          rms(c)
RMM:   1    -0.166658929369E+04    0.17571E+00   -0.27984E-03   960   0.508E-02    0.175E-02
RMM:   2    -0.166658931332E+04   -0.19631E-04   -0.62415E-04   684   0.162E-02    0.170E-02
RMM:   3    -0.166658931995E+04   -0.66275E-05   -0.94972E-05   525   0.931E-03    0.104E-02
RMM:   4    -0.166658932519E+04   -0.52431E-05   -0.59240E-05   525   0.711E-03    0.913E-03
RMM:   5    -0.166658932855E+04   -0.33609E-05   -0.31345E-05   420   0.528E-03    0.463E-03
RMM:   6    -0.166658933075E+04   -0.21950E-05   -0.17471E-05   344   0.431E-03
    3 T=   960. E= -.16508451E+04 F= -.16665893E+04 E0= -.16665893E+04  EK= 0.15754E+02 SP= -.11E-01 SK= 0.28E-03
