<?xml version="1.0" encoding="ISO-8859-1"?>
<modeling>
 <generator>
  <i name="program" type="string">vasp </i>
  <i name="version" type="string">5.4.4.18Apr17-6-g9f103f2a35  </i>
  <i name="subversion" type="string">(build Feb 28 2019 12:03:04) complex            parallel </i>
  <i name="platform" type="string">LinuxIFC </i>
  <i name="date" type="string">2020 12 21 </i>
  <i name="time" type="string">15:17:49 </i>
 </generator>
 <incar>
  <i type="string" name="PREC">normal</i>
  <i type="string" name="ALGO"> VeryFast</i>
  <i type="int" name="NELMIN">     6</i>
  <i type="int" name="IBRION">     0</i>
  <i type="int" name="NSW">     3</i>
  <i type="int" name="ISIF">     2</i>
  <i type="int" name="ISYM">     0</i>
  <i name="ENCUT">    250.00000000</i>
  <i name="POTIM">      1.00000000</i>
  <i name="TEBEG">   1000.00000000</i>
  <i name="SMASS">      1.00000000</i>
  <i type="string" name="LREAL"> Auto</i>
  <i type="int" name="ISMEAR">     0</i>
  <i name="SIGMA">      0.10000000</i>
  <i type="int" name="MDALGO">     2</i>
  <v type="int" name="KPOINT_BSE">    -1     0     0     0</v>
 </incar>
 <structure name="primitive_cell" >
  <crystal>
   <varray name="basis" >
    <v>      12.74965600       0.00000000       0.00000000 </v>
    <v>       0.00000000      12.74965600       0.00000000 </v>
    <v>       0.00000000       0.00000000      12.74965600 </v>
   </varray>
   <i name="volume">   2072.50411503 </i>
   <varray name="rec_basis" >
    <v>       0.07843349       0.00000000       0.00000000 </v>
    <v>       0.00000000       0.07843349       0.00000000 </v>
    <v>       0.00000000       0.00000000       0.07843349 </v>
   </varray>
  </crystal>
  <varray name="positions" >
   <v>       0.00150059       0.00004885      -0.00144719 </v>
   <v>       0.12372118       0.12509738      -0.12506037 </v>
   <v>       0.12369118      -0.12455945      -0.12607613 </v>
   <v>       0.12509460      -0.12334970       0.12397518 </v>
   <v>       0.12346498       0.12479882       0.12585747 </v>
   <v>      -0.12564540      -0.12556081      -0.12436225 </v>
   <v>      -0.12429399       0.12645794      -0.12550197 </v>
   <v>      -0.12510723      -0.12472559       0.12427678 </v>
   <v>      -0.12540892       0.12515898       0.12522558 </v>
   <v>       0.25011617      -0.00019868      -0.00043549 </v>
   <v>      -0.00204637       0.24897599      -0.00007972 </v>
   <v>      -0.00018846       0.00067576      -0.25050162 </v>
   <v>      -0.00025540      -0.24987491      -0.00021343 </v>
   <v>       0.00062457       0.00112337       0.24907665 </v>
   <v>      -0.24911941      -0.00051871       0.00002389 </v>
   <v>       0.25046527       0.00010713      -0.24942996 </v>
   <v>       0.24840584      -0.25018561      -0.00001571 </v>
   <v>      -0.00189066      -0.24987499      -0.24920745 </v>
   <v>       0.24905270       0.25029037      -0.00061569 </v>
   <v>      -0.00027408       0.25054616      -0.24969486 </v>
   <v>      -0.00008178       0.25006322       0.24865911 </v>
   <v>       0.25016999       0.00175188       0.25045521 </v>
   <v>      -0.25030748       0.24899720       0.00083341 </v>
   <v>      -0.24873812      -0.25048780       0.00039951 </v>
   <v>       0.00044217      -0.25080401       0.24966211 </v>
   <v>      -0.25090936       0.00055196      -0.25100757 </v>
   <v>      -0.24966242      -0.00085051       0.25022676 </v>
   <v>       0.37402651      -0.12379832       0.12482083 </v>
   <v>      -0.12485590       0.12327076      -0.37462730 </v>
   <v>       0.37498907       0.12469119      -0.12554561 </v>
   <v>       0.12505369       0.12455496      -0.37528867 </v>
   <v>       0.37545297      -0.12598193      -0.12310895 </v>
   <v>       0.12662124      -0.37350597      -0.12588046 </v>
   <v>       0.12567162      -0.12559031      -0.37524246 </v>
   <v>       0.12432365      -0.37408831       0.12533294 </v>
   <v>       0.12532336       0.37464377       0.12304832 </v>
   <v>       0.12564957       0.37536237      -0.12381775 </v>
   <v>      -0.12573964       0.37412448      -0.12476226 </v>
   <v>       0.37510058       0.12482311       0.12580376 </v>
   <v>      -0.12517314      -0.12364590      -0.37587120 </v>
   <v>       0.12588764      -0.12365083       0.37384397 </v>
   <v>      -0.12324658       0.37477907       0.12492174 </v>
   <v>      -0.12500750      -0.37427168       0.12471263 </v>
   <v>      -0.12513999      -0.37569490      -0.12433011 </v>
   <v>      -0.12451061      -0.12526656       0.37425357 </v>
   <v>      -0.12609876       0.12473736       0.37416255 </v>
   <v>      -0.37449246       0.12441827       0.12548726 </v>
   <v>      -0.37495468      -0.12519602       0.12469258 </v>
   <v>      -0.37598410      -0.12561191      -0.12429532 </v>
   <v>       0.12482677       0.12683497       0.37570651 </v>
   <v>      -0.37646974       0.12465315      -0.12457196 </v>
   <v>       0.24958654       0.25005803      -0.24917230 </v>
   <v>       0.25029473      -0.24997970      -0.24911706 </v>
   <v>       0.25118099       0.24881078       0.24925232 </v>
   <v>      -0.24953034      -0.25020506      -0.24941830 </v>
   <v>      -0.24860994       0.25090373      -0.24976674 </v>
   <v>       0.25097910      -0.24969202       0.24979295 </v>
   <v>      -0.25102166       0.24961717       0.24956683 </v>
   <v>      -0.25019068      -0.25060321       0.25031522 </v>
   <v>       0.00005134       0.00004668      -0.49950714 </v>
   <v>      -0.00017372       0.49871939       0.00153612 </v>
   <v>      -0.49898937      -0.00008058       0.00090666 </v>
   <v>       0.12520316       0.37552902      -0.37302678 </v>
   <v>      -0.12484989      -0.37385506      -0.37490951 </v>
   <v>       0.37579619       0.12484975      -0.37523023 </v>
   <v>       0.37570092      -0.37415033       0.12346905 </v>
   <v>       0.37615996      -0.12480633      -0.37531049 </v>
   <v>       0.37562584       0.37398818       0.12479024 </v>
   <v>       0.37560860      -0.37520369      -0.12415487 </v>
   <v>      -0.37398565       0.12538619      -0.37475363 </v>
   <v>       0.37597807       0.37518766      -0.12443960 </v>
   <v>       0.12527383      -0.37466329       0.37320477 </v>
   <v>       0.12429895       0.37530759       0.37300625 </v>
   <v>      -0.37393347       0.37423870      -0.12536634 </v>
   <v>       0.12537499      -0.37585175      -0.37597588 </v>
   <v>       0.37406893      -0.12510758       0.37648809 </v>
   <v>      -0.12620889       0.37607809      -0.37538446 </v>
   <v>      -0.37539885      -0.12567096      -0.37533029 </v>
   <v>      -0.37551010      -0.37431797      -0.12559156 </v>
   <v>       0.37590567       0.12383697       0.37565313 </v>
   <v>      -0.12333512       0.37455489       0.37592469 </v>
   <v>      -0.37515950       0.37533630       0.12367701 </v>
   <v>      -0.37486343      -0.12391394       0.37506434 </v>
   <v>      -0.37554259      -0.37504670       0.12525033 </v>
   <v>      -0.12489602      -0.37523543       0.37572531 </v>
   <v>      -0.37425773       0.12293098       0.37705846 </v>
   <v>       0.49850009      -0.25011181       0.00008138 </v>
   <v>       0.24964511       0.00040637      -0.49955247 </v>
   <v>       0.49953017       0.00019981      -0.25073944 </v>
   <v>      -0.00011710       0.25074888      -0.49920548 </v>
   <v>       0.00053123      -0.49966012      -0.24886257 </v>
   <v>      -0.00122644      -0.25051589       0.49992235 </v>
   <v>       0.25011574      -0.49989571       0.00048937 </v>
   <v>      -0.49957141       0.25170921      -0.00141985 </v>
   <v>      -0.24980918       0.49925998       0.00044974 </v>
   <v>       0.00039281       0.49919186       0.25098514 </v>
   <v>      -0.25102184      -0.00009517       0.49908438 </v>
   <v>      -0.49863737      -0.00072409       0.25033316 </v>
   <v>       0.49912397      -0.24966762      -0.24819287 </v>
   <v>       0.25002417      -0.49820620      -0.25012647 </v>
   <v>      -0.24961125       0.49799018      -0.24914982 </v>
   <v>       0.24835115      -0.25071564      -0.49998979 </v>
   <v>       0.25078564       0.24913824      -0.49991939 </v>
   <v>      -0.25008040       0.24812687      -0.49933368 </v>
   <v>      -0.49961583       0.25189165      -0.24959731 </v>
   <v>      -0.49961885      -0.24974173       0.25007257 </v>
   <v>      -0.49923075       0.24853746       0.25065682 </v>
   <v>      -0.24984960      -0.25050155       0.49962276 </v>
   <v>       0.24972758      -0.49990536       0.25068394 </v>
   <v>      -0.25188065       0.49907116       0.24899911 </v>
   <v>       0.37317035       0.37485693      -0.37645050 </v>
   <v>      -0.37304627       0.37460065      -0.37430980 </v>
   <v>       0.37566399      -0.37515066      -0.37519235 </v>
   <v>       0.37496480      -0.37518646       0.37471725 </v>
   <v>      -0.37464870      -0.37556147      -0.37515869 </v>
   <v>      -0.37491047      -0.37460706       0.37432980 </v>
   <v>       0.37637575       0.37585525       0.37552473 </v>
   <v>      -0.37494314       0.37440647       0.37585689 </v>
   <v>       0.49969292      -0.00047060       0.49990515 </v>
   <v>      -0.00078729       0.49931448      -0.49977208 </v>
   <v>       0.49969937      -0.49958697       0.00022302 </v>
   <v>       0.24887383      -0.49821634       0.49943515 </v>
   <v>       0.49953163       0.25043605      -0.49970286 </v>
   <v>       0.49989258      -0.49923793      -0.24948769 </v>
   <v>       0.49979478      -0.24941007       0.49815050 </v>
   <v>      -0.49973548       0.49905233       0.24919087 </v>
   <v>      -0.24963428      -0.49981245       0.49971382 </v>
   <v>       0.49888410      -0.49905449       0.49904177 </v>
  </varray>
 </structure>
 <varray name="primitive_index" >
  <v type="int" >        1 </v>
  <v type="int" >       68 </v>
  <v type="int" >       80 </v>
  <v type="int" >       77 </v>
  <v type="int" >       65 </v>
  <v type="int" >      128 </v>
  <v type="int" >      116 </v>
  <v type="int" >      125 </v>
  <v type="int" >      113 </v>
  <v type="int" >       17 </v>
  <v type="int" >        5 </v>
  <v type="int" >        4 </v>
  <v type="int" >       13 </v>
  <v type="int" >        2 </v>
  <v type="int" >       49 </v>
  <v type="int" >       20 </v>
  <v type="int" >       29 </v>
  <v type="int" >       16 </v>
  <v type="int" >       21 </v>
  <v type="int" >        8 </v>
  <v type="int" >        6 </v>
  <v type="int" >       18 </v>
  <v type="int" >       53 </v>
  <v type="int" >       61 </v>
  <v type="int" >       14 </v>
  <v type="int" >       52 </v>
  <v type="int" >       50 </v>
  <v type="int" >       93 </v>
  <v type="int" >      115 </v>
  <v type="int" >       84 </v>
  <v type="int" >       67 </v>
  <v type="int" >       96 </v>
  <v type="int" >       76 </v>
  <v type="int" >       79 </v>
  <v type="int" >       73 </v>
  <v type="int" >       69 </v>
  <v type="int" >       72 </v>
  <v type="int" >      120 </v>
  <v type="int" >       81 </v>
  <v type="int" >      127 </v>
  <v type="int" >       78 </v>
  <v type="int" >      117 </v>
  <v type="int" >      121 </v>
  <v type="int" >      124 </v>
  <v type="int" >      126 </v>
  <v type="int" >      114 </v>
  <v type="int" >       97 </v>
  <v type="int" >      109 </v>
  <v type="int" >      112 </v>
  <v type="int" >       66 </v>
  <v type="int" >      100 </v>
  <v type="int" >       24 </v>
  <v type="int" >       32 </v>
  <v type="int" >       22 </v>
  <v type="int" >       64 </v>
  <v type="int" >       56 </v>
  <v type="int" >       30 </v>
  <v type="int" >       54 </v>
  <v type="int" >       62 </v>
  <v type="int" >        3 </v>
  <v type="int" >        9 </v>
  <v type="int" >       33 </v>
  <v type="int" >       71 </v>
  <v type="int" >      123 </v>
  <v type="int" >       83 </v>
  <v type="int" >       89 </v>
  <v type="int" >       95 </v>
  <v type="int" >       85 </v>
  <v type="int" >       92 </v>
  <v type="int" >       99 </v>
  <v type="int" >       88 </v>
  <v type="int" >       74 </v>
  <v type="int" >       70 </v>
  <v type="int" >      104 </v>
  <v type="int" >       75 </v>
  <v type="int" >       94 </v>
  <v type="int" >      119 </v>
  <v type="int" >      111 </v>
  <v type="int" >      108 </v>
  <v type="int" >       82 </v>
  <v type="int" >      118 </v>
  <v type="int" >      101 </v>
  <v type="int" >      110 </v>
  <v type="int" >      105 </v>
  <v type="int" >      122 </v>
  <v type="int" >       98 </v>
  <v type="int" >       45 </v>
  <v type="int" >       19 </v>
  <v type="int" >       36 </v>
  <v type="int" >        7 </v>
  <v type="int" >       12 </v>
  <v type="int" >       15 </v>
  <v type="int" >       25 </v>
  <v type="int" >       37 </v>
  <v type="int" >       57 </v>
  <v type="int" >       10 </v>
  <v type="int" >       51 </v>
  <v type="int" >       34 </v>
  <v type="int" >       48 </v>
  <v type="int" >       28 </v>
  <v type="int" >       60 </v>
  <v type="int" >       31 </v>
  <v type="int" >       23 </v>
  <v type="int" >       55 </v>
  <v type="int" >       40 </v>
  <v type="int" >       46 </v>
  <v type="int" >       38 </v>
  <v type="int" >       63 </v>
  <v type="int" >       26 </v>
  <v type="int" >       58 </v>
  <v type="int" >       87 </v>
  <v type="int" >      103 </v>
  <v type="int" >       91 </v>
  <v type="int" >       90 </v>
  <v type="int" >      107 </v>
  <v type="int" >      106 </v>
  <v type="int" >       86 </v>
  <v type="int" >      102 </v>
  <v type="int" >       35 </v>
  <v type="int" >       11 </v>
  <v type="int" >       41 </v>
  <v type="int" >       27 </v>
  <v type="int" >       39 </v>
  <v type="int" >       44 </v>
  <v type="int" >       47 </v>
  <v type="int" >       42 </v>
  <v type="int" >       59 </v>
  <v type="int" >       43 </v>
 </varray>
 <kpoints>
  <generation param="Gamma">
   <v type="int" name="divisions">       1        1        1 </v>
   <v name="usershift">      0.00000000       0.00000000       0.00000000 </v>
   <v name="genvec1">      1.00000000       0.00000000       0.00000000 </v>
   <v name="genvec2">      0.00000000       1.00000000       0.00000000 </v>
   <v name="genvec3">      0.00000000       0.00000000       1.00000000 </v>
   <v name="shift">      0.00000000       0.00000000       0.00000000 </v>
  </generation>
  <varray name="kpointlist" >
   <v>       0.00000000       0.00000000       0.00000000 </v>
  </varray>
  <varray name="weights" >
   <v>       1.00000000 </v>
  </varray>
 </kpoints>
 <parameters>
  <separator name="general" >
   <i type="string" name="SYSTEM">unknown system</i>
   <i type="logical" name="LCOMPAT"> F  </i>
  </separator>
  <separator name="electronic" >
   <i type="string" name="PREC">normal</i>
   <i name="ENMAX">    250.00000000</i>
   <i name="ENAUG">    373.43800000</i>
   <i name="EDIFF">      0.00010000</i>
   <i type="int" name="IALGO">    48</i>
   <i type="int" name="IWAVPR">    12</i>
   <i type="int" name="NBANDS">   460</i>
   <i name="NELECT">    768.00000000</i>
   <i type="int" name="TURBO">     0</i>
   <i type="int" name="IRESTART">     0</i>
   <i type="int" name="NREBOOT">     0</i>
   <i type="int" name="NMIN">     0</i>
   <i name="EREF">      0.00000000</i>
   <separator name="electronic smearing" >
    <i type="int" name="ISMEAR">     0</i>
    <i name="SIGMA">      0.10000000</i>
    <i name="KSPACING">      0.50000000</i>
    <i type="logical" name="KGAMMA"> T  </i>
   </separator>
   <separator name="electronic projectors" >
    <i type="logical" name="LREAL"> T  </i>
    <v name="ROPT">     -0.00050000</v>
    <i type="int" name="LMAXPAW">  -100</i>
    <i type="int" name="LMAXMIX">     2</i>
    <i type="logical" name="NLSPLINE"> F  </i>
   </separator>
   <separator name="electronic startup" >
    <i type="int" name="ISTART">     1</i>
    <i type="int" name="ICHARG">     0</i>
    <i type="int" name="INIWAV">     1</i>
   </separator>
   <separator name="electronic spin" >
    <i type="int" name="ISPIN">     1</i>
    <i type="logical" name="LNONCOLLINEAR"> F  </i>
    <v name="MAGMOM">      1.00000000      1.00000000      1.00000000      1.00000000      1.00000000      1.00000000      1.00000000      1.00000000      1.00000000      1.00000000      1.00000000      1.00000000      1.00000000      1.00000000      1.00000000      1.00000000      1.00000000      1.00000000      1.00000000      1.00000000
      1.00000000      1.00000000      1.00000000      1.00000000      1.00000000      1.00000000      1.00000000      1.00000000      1.00000000      1.00000000      1.00000000      1.00000000      1.00000000      1.00000000      1.00000000      1.00000000      1.00000000      1.00000000      1.00000000      1.00000000
      1.00000000      1.00000000      1.00000000      1.00000000      1.00000000      1.00000000      1.00000000      1.00000000      1.00000000      1.00000000      1.00000000      1.00000000      1.00000000      1.00000000      1.00000000      1.00000000      1.00000000      1.00000000      1.00000000      1.00000000
      1.00000000      1.00000000      1.00000000      1.00000000      1.00000000      1.00000000      1.00000000      1.00000000      1.00000000      1.00000000      1.00000000      1.00000000      1.00000000      1.00000000      1.00000000      1.00000000      1.00000000      1.00000000      1.00000000      1.00000000
      1.00000000      1.00000000      1.00000000      1.00000000      1.00000000      1.00000000      1.00000000      1.00000000      1.00000000      1.00000000      1.00000000      1.00000000      1.00000000      1.00000000      1.00000000      1.00000000      1.00000000      1.00000000      1.00000000      1.00000000
      1.00000000      1.00000000      1.00000000      1.00000000      1.00000000      1.00000000      1.00000000      1.00000000      1.00000000      1.00000000      1.00000000      1.00000000      1.00000000      1.00000000      1.00000000      1.00000000      1.00000000      1.00000000      1.00000000      1.00000000
      1.00000000      1.00000000      1.00000000      1.00000000      1.00000000      1.00000000      1.00000000      1.00000000</v>
    <i name="NUPDOWN">     -1.00000000</i>
    <i type="logical" name="LSORBIT"> F  </i>
    <v name="SAXIS">      0.00000000      0.00000000      1.00000000</v>
    <i type="logical" name="LSPIRAL"> F  </i>
    <v name="QSPIRAL">      0.00000000      0.00000000      0.00000000</v>
    <i type="logical" name="LZEROZ"> F  </i>
   </separator>
   <separator name="electronic exchange-correlation" >
    <i type="logical" name="LASPH"> F  </i>
    <i type="logical" name="LMETAGGA"> F  </i>
   </separator>
   <separator name="electronic convergence" >
    <i type="int" name="NELM">    60</i>
    <i type="int" name="NELMDL">     0</i>
    <i type="int" name="NELMIN">     6</i>
    <i name="ENINI">    250.00000000</i>
    <separator name="electronic convergence detail" >
     <i type="logical" name="LDIAG"> T  </i>
     <i type="logical" name="LSUBROT"> F  </i>
     <i name="WEIMIN">      0.00100000</i>
     <i name="EBREAK">      0.00000005</i>
     <i name="DEPER">      0.30000000</i>
     <i type="int" name="NRMM">     4</i>
     <i name="TIME">      0.40000000</i>
    </separator>
   </separator>
   <separator name="electronic mixer" >
    <i name="AMIX">      0.40000000</i>
    <i name="BMIX">      1.00000000</i>
    <i name="AMIN">      0.10000000</i>
    <i name="AMIX_MAG">      1.60000000</i>
    <i name="BMIX_MAG">      1.00000000</i>
    <separator name="electronic mixer details" >
     <i type="int" name="IMIX">     4</i>
     <i type="logical" name="MIXFIRST"> F  </i>
     <i type="int" name="MAXMIX">   -45</i>
     <i name="WC">    100.00000000</i>
     <i type="int" name="INIMIX">     1</i>
     <i type="int" name="MIXPRE">     1</i>
     <i type="int" name="MREMOVE">     5</i>
    </separator>
   </separator>
   <separator name="electronic dipolcorrection" >
    <i type="logical" name="LDIPOL"> F  </i>
    <i type="logical" name="LMONO"> F  </i>
    <i type="int" name="IDIPOL">     0</i>
    <i name="EPSILON">      1.00000000</i>
    <v name="DIPOL">   -100.00000000   -100.00000000   -100.00000000</v>
    <i name="EFIELD">      0.00000000</i>
   </separator>
  </separator>
  <separator name="grids" >
   <i type="int" name="NGX">    50</i>
   <i type="int" name="NGY">    50</i>
   <i type="int" name="NGZ">    50</i>
   <i type="int" name="NGXF">   100</i>
   <i type="int" name="NGYF">   100</i>
   <i type="int" name="NGZF">   100</i>
   <i type="logical" name="ADDGRID"> F  </i>
  </separator>
  <separator name="ionic" >
   <i type="int" name="NSW">     3</i>
   <i type="int" name="IBRION">     0</i>
   <i type="int" name="MDALGO">     2</i>
   <i type="int" name="ISIF">     2</i>
   <i name="PSTRESS">      0.00000000</i>
   <i name="EDIFFG">      0.00100000</i>
   <i type="int" name="NFREE">     0</i>
   <i name="POTIM">      1.00000000</i>
   <i name="SMASS">      1.00000000</i>
   <i name="SCALEE">      1.00000000</i>
  </separator>
  <separator name="ionic md" >
   <i name="TEBEG">   1000.00000000</i>
   <i name="TEEND">   1000.00000000</i>
   <i type="int" name="NBLOCK">     1</i>
   <i type="int" name="KBLOCK">     3</i>
   <i type="int" name="NPACO">   256</i>
   <i name="APACO">     16.00000000</i>
  </separator>
  <separator name="symmetry" >
   <i type="int" name="ISYM">     0</i>
   <i name="SYMPREC">      0.00001000</i>
  </separator>
  <separator name="dos" >
   <i type="int" name="LORBIT">     0</i>
   <v name="RWIGS">     -1.00000000</v>
   <i type="int" name="NEDOS">   301</i>
   <i name="EMIN">     10.00000000</i>
   <i name="EMAX">    -10.00000000</i>
   <i name="EFERMI">      0.00000000</i>
  </separator>
  <separator name="writing" >
   <i type="int" name="NWRITE">     2</i>
   <i type="logical" name="LWAVE"> T  </i>
   <i type="logical" name="LDOWNSAMPLE"> F  </i>
   <i type="logical" name="LCHARG"> T  </i>
   <i type="logical" name="LPARD"> F  </i>
   <i type="logical" name="LVTOT"> F  </i>
   <i type="logical" name="LVHAR"> F  </i>
   <i type="logical" name="LELF"> F  </i>
   <i type="logical" name="LOPTICS"> F  </i>
   <v name="STM">      0.00000000      0.00000000      0.00000000      0.00000000      0.00000000      0.00000000      0.00000000</v>
  </separator>
  <separator name="performance" >
   <i type="int" name="NPAR">     1</i>
   <i type="int" name="NSIM">     4</i>
   <i type="int" name="NBLK">    -1</i>
   <i type="logical" name="LPLANE"> T  </i>
   <i type="logical" name="LSCALAPACK"> F  </i>
   <i type="logical" name="LSCAAWARE"> F  </i>
   <i type="logical" name="LSCALU"> F  </i>
   <i type="logical" name="LASYNC"> F  </i>
   <i type="logical" name="LORBITALREAL"> F  </i>
  </separator>
  <separator name="miscellaneous" >
   <i type="int" name="IDIOT">     3</i>
   <i type="int" name="ISPECIAL">     0</i>
   <i type="logical" name="LMUSIC"> F  </i>
   <v name="POMASS">    183.85000000</v>
   <v name="DARWINR">      0.00000000</v>
   <v name="DARWINV">      1.00000000</v>
   <i type="logical" name="LCORR"> T  </i>
  </separator>
  <i type="logical" name="GGA_COMPAT"> T  </i>
  <i type="logical" name="LBERRY"> F  </i>
  <i type="int" name="ICORELEVEL">     0</i>
  <i type="logical" name="LDAU"> F  </i>
  <i type="int" name="I_CONSTRAINED_M">     0</i>
  <separator name="electronic exchange-correlation" >
   <i type="string" name="GGA">--</i>
   <i type="int" name="VOSKOWN">     0</i>
   <i type="logical" name="LHFCALC"> F  </i>
   <i type="string" name="PRECFOCK"></i>
   <i type="logical" name="LSYMGRAD"> F  </i>
   <i type="logical" name="LHFONE"> F  </i>
   <i type="logical" name="LRHFCALC"> F  </i>
   <i type="logical" name="LTHOMAS"> F  </i>
   <i type="logical" name="LMODELHF"> F  </i>
   <i name="ENCUT4O">     -1.00000000</i>
   <i type="int" name="EXXOEP">     0</i>
   <i type="int" name="FOURORBIT">     0</i>
   <i name="AEXX">      0.00000000</i>
   <i name="HFALPHA">      0.00000000</i>
   <i name="MCALPHA">      0.00000000</i>
   <i name="ALDAX">      1.00000000</i>
   <i name="AGGAX">      1.00000000</i>
   <i name="ALDAC">      1.00000000</i>
   <i name="AGGAC">      1.00000000</i>
   <i type="int" name="NKREDX">     1</i>
   <i type="int" name="NKREDY">     1</i>
   <i type="int" name="NKREDZ">     1</i>
   <i type="logical" name="SHIFTRED"> F  </i>
   <i type="logical" name="ODDONLY"> F  </i>
   <i type="logical" name="EVENONLY"> F  </i>
   <i type="int" name="LMAXFOCK">     0</i>
   <i type="int" name="NMAXFOCKAE">     0</i>
   <i type="logical" name="LFOCKAEDFT"> F  </i>
   <i name="HFSCREEN">      0.00000000</i>
   <i name="HFSCREENC">      0.00000000</i>
   <i type="int" name="NBANDSGWLOW">     0</i>
  </separator>
  <separator name="vdW DFT" >
   <i type="logical" name="LUSE_VDW"> F  </i>
   <i name="Zab_VDW">     -0.84910000</i>
   <i name="PARAM1">      0.12340000</i>
   <i name="PARAM2">      1.00000000</i>
   <i name="PARAM3">      0.00000000</i>
  </separator>
  <separator name="model GW" >
   <i type="int" name="MODEL_GW">     0</i>
   <i name="MODEL_EPS0">      9.71486304</i>
   <i name="MODEL_ALPHA">      1.00000000</i>
  </separator>
  <separator name="linear response parameters" >
   <i type="logical" name="LEPSILON"> F  </i>
   <i type="logical" name="LRPA"> F  </i>
   <i type="logical" name="LNABLA"> F  </i>
   <i type="logical" name="LVEL"> F  </i>
   <i type="int" name="KINTER">     0</i>
   <i name="CSHIFT">      0.10000000</i>
   <i name="OMEGAMAX">     -1.00000000</i>
   <i name="DEG_THRESHOLD">      0.00200000</i>
   <i name="RTIME">     -0.10000000</i>
   <i name="WPLASMAI">      0.00000000</i>
   <v name="DFIELD">      0.00000000      0.00000000      0.00000000</v>
   <v name="WPLASMA">      0.00000000      0.00000000      0.00000000      0.00000000      0.00000000      0.00000000      0.00000000      0.00000000      0.00000000</v>
  </separator>
  <separator name="orbital magnetization" >
   <i type="logical" name="NUCIND"> F  </i>
   <v name="MAGPOS">      0.00000000      0.00000000      0.00000000</v>
   <i type="logical" name="LNICSALL"> T  </i>
   <i type="logical" name="ORBITALMAG"> F  </i>
   <i type="logical" name="LMAGBLOCH"> F  </i>
   <i type="logical" name="LCHIMAG"> F  </i>
   <i type="logical" name="LGAUGE"> T  </i>
   <i type="int" name="MAGATOM">     0</i>
   <v name="MAGDIPOL">      0.00000000      0.00000000      0.00000000</v>
   <v name="AVECCONST">      0.00000000      0.00000000      0.00000000</v>
  </separator>
  <separator name="response functions" >
   <i type="logical" name="LADDER"> F  </i>
   <i type="logical" name="LRPAFORCE"> F  </i>
   <i type="logical" name="LFXC"> F  </i>
   <i type="logical" name="LHARTREE"> T  </i>
   <i type="int" name="IBSE">     0</i>
   <v type="int" name="KPOINT">    -1     0     0     0</v>
   <i type="logical" name="LTCTE"> F  </i>
   <i type="logical" name="LTETE"> F  </i>
   <i type="logical" name="LTRIPLET"> F  </i>
   <i type="logical" name="LFXCEPS"> F  </i>
   <i type="logical" name="LFXHEG"> F  </i>
   <i type="int" name="NATURALO">     2</i>
   <i type="logical" name="L2ORDER"> F  </i>
   <i type="logical" name="LMP2LT"> F  </i>
   <i type="logical" name="LUSEW"> F  </i>
   <i name="ENCUTGW">     -2.00000000</i>
   <i name="ENCUTGWSOFT">     -2.00000000</i>
   <i name="ENCUTLF">     -1.00000000</i>
   <i type="int" name="LMAXMP2">    -1</i>
   <i name="SCISSOR">      0.00000000</i>
   <i type="int" name="NOMEGA">     0</i>
   <i type="int" name="NOMEGAR">     0</i>
   <i type="int" name="NBANDSGW">    -1</i>
   <i type="int" name="NBANDSO">    -1</i>
   <i type="int" name="NBANDSV">    -1</i>
   <i type="int" name="NELM">     1</i>
   <i type="int" name="NELMHF">     1</i>
   <i type="int" name="DIM">     3</i>
   <i type="int" name="ANTIRES">     0</i>
   <i name="OMEGAMAX">    -30.00000000</i>
   <i name="OMEGAMIN">    -30.00000000</i>
   <i name="OMEGATL">   -200.00000000</i>
   <i type="int" name="OMEGAGRID">   140</i>
   <i name="CSHIFT">     -0.10000000</i>
   <i type="logical" name="SELFENERGY"> F  </i>
   <i type="logical" name="LSPECTRAL"> F  </i>
   <i type="logical" name="LSPECTRALGW"> F  </i>
   <i type="logical" name="LSINGLES"> F  </i>
   <i type="logical" name="LFERMIGW"> F  </i>
   <i type="logical" name="ODDONLYGW"> F  </i>
   <i type="logical" name="EVENONLYGW"> F  </i>
   <i type="int" name="NKREDLFX">     1</i>
   <i type="int" name="NKREDLFY">     1</i>
   <i type="int" name="NKREDLFZ">     1</i>
   <i type="int" name="MAXMEM">  2800</i>
   <i type="int" name="TELESCOPE">     0</i>
   <i type="int" name="TAUPAR">     1</i>
   <i type="int" name="OMEGAPAR">    -1</i>
   <i name="LAMBDA">      1.00000000</i>
  </separator>
  <separator name="External order field" >
   <i name="OFIELD_KAPPA">      0.00000000</i>
   <v name="OFIELD_K">      0.00000000      0.00000000      0.00000000</v>
   <i name="OFIELD_Q6_NEAR">      0.00000000</i>
   <i name="OFIELD_Q6_FAR">      0.00000000</i>
   <i name="OFIELD_A">      0.00000000</i>
  </separator>
 </parameters>
 <atominfo>
  <atoms>     128 </atoms>
  <types>       1 </types>
  <array name="atoms" >
   <dimension dim="1">ion</dimension>
   <field type="string">element</field>
   <field type="int">atomtype</field>
   <set>
    <rc><c>W </c><c>   1</c></rc>
    <rc><c>W </c><c>   1</c></rc>
    <rc><c>W </c><c>   1</c></rc>
    <rc><c>W </c><c>   1</c></rc>
    <rc><c>W </c><c>   1</c></rc>
    <rc><c>W </c><c>   1</c></rc>
    <rc><c>W </c><c>   1</c></rc>
    <rc><c>W </c><c>   1</c></rc>
    <rc><c>W </c><c>   1</c></rc>
    <rc><c>W </c><c>   1</c></rc>
    <rc><c>W </c><c>   1</c></rc>
    <rc><c>W </c><c>   1</c></rc>
    <rc><c>W </c><c>   1</c></rc>
    <rc><c>W </c><c>   1</c></rc>
    <rc><c>W </c><c>   1</c></rc>
    <rc><c>W </c><c>   1</c></rc>
    <rc><c>W </c><c>   1</c></rc>
    <rc><c>W </c><c>   1</c></rc>
    <rc><c>W </c><c>   1</c></rc>
    <rc><c>W </c><c>   1</c></rc>
    <rc><c>W </c><c>   1</c></rc>
    <rc><c>W </c><c>   1</c></rc>
    <rc><c>W </c><c>   1</c></rc>
    <rc><c>W </c><c>   1</c></rc>
    <rc><c>W </c><c>   1</c></rc>
    <rc><c>W </c><c>   1</c></rc>
    <rc><c>W </c><c>   1</c></rc>
    <rc><c>W </c><c>   1</c></rc>
    <rc><c>W </c><c>   1</c></rc>
    <rc><c>W </c><c>   1</c></rc>
    <rc><c>W </c><c>   1</c></rc>
    <rc><c>W </c><c>   1</c></rc>
    <rc><c>W </c><c>   1</c></rc>
    <rc><c>W </c><c>   1</c></rc>
    <rc><c>W </c><c>   1</c></rc>
    <rc><c>W </c><c>   1</c></rc>
    <rc><c>W </c><c>   1</c></rc>
    <rc><c>W </c><c>   1</c></rc>
    <rc><c>W </c><c>   1</c></rc>
    <rc><c>W </c><c>   1</c></rc>
    <rc><c>W </c><c>   1</c></rc>
    <rc><c>W </c><c>   1</c></rc>
    <rc><c>W </c><c>   1</c></rc>
    <rc><c>W </c><c>   1</c></rc>
    <rc><c>W </c><c>   1</c></rc>
    <rc><c>W </c><c>   1</c></rc>
    <rc><c>W </c><c>   1</c></rc>
    <rc><c>W </c><c>   1</c></rc>
    <rc><c>W </c><c>   1</c></rc>
    <rc><c>W </c><c>   1</c></rc>
    <rc><c>W </c><c>   1</c></rc>
    <rc><c>W </c><c>   1</c></rc>
    <rc><c>W </c><c>   1</c></rc>
    <rc><c>W </c><c>   1</c></rc>
    <rc><c>W </c><c>   1</c></rc>
    <rc><c>W </c><c>   1</c></rc>
    <rc><c>W </c><c>   1</c></rc>
    <rc><c>W </c><c>   1</c></rc>
    <rc><c>W </c><c>   1</c></rc>
    <rc><c>W </c><c>   1</c></rc>
    <rc><c>W </c><c>   1</c></rc>
    <rc><c>W </c><c>   1</c></rc>
    <rc><c>W </c><c>   1</c></rc>
    <rc><c>W </c><c>   1</c></rc>
    <rc><c>W </c><c>   1</c></rc>
    <rc><c>W </c><c>   1</c></rc>
    <rc><c>W </c><c>   1</c></rc>
    <rc><c>W </c><c>   1</c></rc>
    <rc><c>W </c><c>   1</c></rc>
    <rc><c>W </c><c>   1</c></rc>
    <rc><c>W </c><c>   1</c></rc>
    <rc><c>W </c><c>   1</c></rc>
    <rc><c>W </c><c>   1</c></rc>
    <rc><c>W </c><c>   1</c></rc>
    <rc><c>W </c><c>   1</c></rc>
    <rc><c>W </c><c>   1</c></rc>
    <rc><c>W </c><c>   1</c></rc>
    <rc><c>W </c><c>   1</c></rc>
    <rc><c>W </c><c>   1</c></rc>
    <rc><c>W </c><c>   1</c></rc>
    <rc><c>W </c><c>   1</c></rc>
    <rc><c>W </c><c>   1</c></rc>
    <rc><c>W </c><c>   1</c></rc>
    <rc><c>W </c><c>   1</c></rc>
    <rc><c>W </c><c>   1</c></rc>
    <rc><c>W </c><c>   1</c></rc>
    <rc><c>W </c><c>   1</c></rc>
    <rc><c>W </c><c>   1</c></rc>
    <rc><c>W </c><c>   1</c></rc>
    <rc><c>W </c><c>   1</c></rc>
    <rc><c>W </c><c>   1</c></rc>
    <rc><c>W </c><c>   1</c></rc>
    <rc><c>W </c><c>   1</c></rc>
    <rc><c>W </c><c>   1</c></rc>
    <rc><c>W </c><c>   1</c></rc>
    <rc><c>W </c><c>   1</c></rc>
    <rc><c>W </c><c>   1</c></rc>
    <rc><c>W </c><c>   1</c></rc>
    <rc><c>W </c><c>   1</c></rc>
    <rc><c>W </c><c>   1</c></rc>
    <rc><c>W </c><c>   1</c></rc>
    <rc><c>W </c><c>   1</c></rc>
    <rc><c>W </c><c>   1</c></rc>
    <rc><c>W </c><c>   1</c></rc>
    <rc><c>W </c><c>   1</c></rc>
    <rc><c>W </c><c>   1</c></rc>
    <rc><c>W </c><c>   1</c></rc>
    <rc><c>W </c><c>   1</c></rc>
    <rc><c>W </c><c>   1</c></rc>
    <rc><c>W </c><c>   1</c></rc>
    <rc><c>W </c><c>   1</c></rc>
    <rc><c>W </c><c>   1</c></rc>
    <rc><c>W </c><c>   1</c></rc>
    <rc><c>W </c><c>   1</c></rc>
    <rc><c>W </c><c>   1</c></rc>
    <rc><c>W </c><c>   1</c></rc>
    <rc><c>W </c><c>   1</c></rc>
    <rc><c>W </c><c>   1</c></rc>
    <rc><c>W </c><c>   1</c></rc>
    <rc><c>W </c><c>   1</c></rc>
    <rc><c>W </c><c>   1</c></rc>
    <rc><c>W </c><c>   1</c></rc>
    <rc><c>W </c><c>   1</c></rc>
    <rc><c>W </c><c>   1</c></rc>
    <rc><c>W </c><c>   1</c></rc>
    <rc><c>W </c><c>   1</c></rc>
    <rc><c>W </c><c>   1</c></rc>
    <rc><c>W </c><c>   1</c></rc>
   </set>
  </array>
  <array name="atomtypes" >
   <dimension dim="1">type</dimension>
   <field type="int">atomspertype</field>
   <field type="string">element</field>
   <field>mass</field>
   <field>valence</field>
   <field type="string">pseudopotential</field>
   <set>
    <rc><c> 128</c><c>W </c><c>    183.85000000</c><c>      6.00000000</c><c>  PAW_PBE W 08Apr2002                   </c></rc>
   </set>
  </array>
 </atominfo>
 <structure name="initialpos" >
  <crystal>
   <varray name="basis" >
    <v>      12.74965600       0.00000000       0.00000000 </v>
    <v>       0.00000000      12.74965600       0.00000000 </v>
    <v>       0.00000000       0.00000000      12.74965600 </v>
   </varray>
   <i name="volume">   2072.50411503 </i>
   <varray name="rec_basis" >
    <v>       0.07843349       0.00000000       0.00000000 </v>
    <v>       0.00000000       0.07843349       0.00000000 </v>
    <v>       0.00000000       0.00000000       0.07843349 </v>
   </varray>
  </crystal>
  <varray name="positions" >
   <v>       0.00150059       0.00004885       0.99855281 </v>
   <v>       0.00062457       0.00112337       0.24907665 </v>
   <v>       0.00005134       0.00004668       0.50049286 </v>
   <v>       0.99981154       0.00067576       0.74949838 </v>
   <v>       0.99795363       0.24897599       0.99992028 </v>
   <v>       0.99991822       0.25006322       0.24865911 </v>
   <v>       0.99988290       0.25074888       0.50079452 </v>
   <v>       0.99972592       0.25054616       0.75030514 </v>
   <v>       0.99982628       0.49871939       0.00153612 </v>
   <v>       0.00039281       0.49919186       0.25098514 </v>
   <v>       0.99921271       0.49931448       0.50022792 </v>
   <v>       0.00053123       0.50033988       0.75113743 </v>
   <v>       0.99974460       0.75012509       0.99978657 </v>
   <v>       0.00044217       0.74919599       0.24966211 </v>
   <v>       0.99877356       0.74948411       0.49992235 </v>
   <v>       0.99810934       0.75012501       0.75079255 </v>
   <v>       0.25011617       0.99980132       0.99956451 </v>
   <v>       0.25016999       0.00175188       0.25045521 </v>
   <v>       0.24964511       0.00040637       0.50044753 </v>
   <v>       0.25046527       0.00010713       0.75057004 </v>
   <v>       0.24905270       0.25029037       0.99938431 </v>
   <v>       0.25118099       0.24881078       0.24925232 </v>
   <v>       0.25078564       0.24913824       0.50008061 </v>
   <v>       0.24958654       0.25005803       0.75082770 </v>
   <v>       0.25011574       0.50010429       0.00048937 </v>
   <v>       0.24972758       0.50009464       0.25068394 </v>
   <v>       0.24887383       0.50178366       0.49943515 </v>
   <v>       0.25002417       0.50179380       0.74987353 </v>
   <v>       0.24840584       0.74981439       0.99998429 </v>
   <v>       0.25097910       0.75030798       0.24979295 </v>
   <v>       0.24835115       0.74928436       0.50001021 </v>
   <v>       0.25029473       0.75002030       0.75088294 </v>
   <v>       0.50101063       0.99991942       0.00090666 </v>
   <v>       0.50136263       0.99927591       0.25033316 </v>
   <v>       0.49969292       0.99952940       0.49990515 </v>
   <v>       0.49953017       0.00019981       0.74926056 </v>
   <v>       0.50042859       0.25170921       0.99858015 </v>
   <v>       0.50076925       0.24853746       0.25065682 </v>
   <v>       0.49953163       0.25043605       0.50029714 </v>
   <v>       0.50038417       0.25189165       0.75040269 </v>
   <v>       0.49969937       0.50041303       0.00022302 </v>
   <v>       0.50026452       0.49905233       0.24919087 </v>
   <v>       0.49888410       0.50094551       0.49904177 </v>
   <v>       0.49989258       0.50076207       0.75051231 </v>
   <v>       0.49850009       0.74988819       0.00008138 </v>
   <v>       0.50038115       0.75025827       0.25007257 </v>
   <v>       0.49979478       0.75058993       0.49815050 </v>
   <v>       0.49912397       0.75033238       0.75180713 </v>
   <v>       0.75088059       0.99948129       0.00002389 </v>
   <v>       0.75033758       0.99914949       0.25022676 </v>
   <v>       0.74897816       0.99990483       0.49908438 </v>
   <v>       0.74909064       0.00055196       0.74899243 </v>
   <v>       0.74969252       0.24899720       0.00083341 </v>
   <v>       0.74897834       0.24961717       0.24956683 </v>
   <v>       0.74991960       0.24812687       0.50066632 </v>
   <v>       0.75139006       0.25090373       0.75023326 </v>
   <v>       0.75019082       0.49925998       0.00044974 </v>
   <v>       0.74811935       0.49907116       0.24899911 </v>
   <v>       0.75036572       0.50018755       0.49971382 </v>
   <v>       0.75038875       0.49799018       0.75085018 </v>
   <v>       0.75126188       0.74951220       0.00039951 </v>
   <v>       0.74980932       0.74939679       0.25031522 </v>
   <v>       0.75015040       0.74949845       0.49962276 </v>
   <v>       0.75046966       0.74979494       0.75058170 </v>
   <v>       0.12346498       0.12479882       0.12585747 </v>
   <v>       0.12482677       0.12683497       0.37570651 </v>
   <v>       0.12505369       0.12455496       0.62471133 </v>
   <v>       0.12372118       0.12509738       0.87493963 </v>
   <v>       0.12532336       0.37464377       0.12304832 </v>
   <v>       0.12429895       0.37530759       0.37300625 </v>
   <v>       0.12520316       0.37552902       0.62697322 </v>
   <v>       0.12564957       0.37536237       0.87618225 </v>
   <v>       0.12432365       0.62591169       0.12533294 </v>
   <v>       0.12527383       0.62533671       0.37320477 </v>
   <v>       0.12537499       0.62414825       0.62402412 </v>
   <v>       0.12662124       0.62649403       0.87411954 </v>
   <v>       0.12509460       0.87665030       0.12397518 </v>
   <v>       0.12588764       0.87634917       0.37384397 </v>
   <v>       0.12567162       0.87440969       0.62475754 </v>
   <v>       0.12369118       0.87544055       0.87392387 </v>
   <v>       0.37510058       0.12482311       0.12580376 </v>
   <v>       0.37590567       0.12383697       0.37565313 </v>
   <v>       0.37579619       0.12484975       0.62476977 </v>
   <v>       0.37498907       0.12469119       0.87445439 </v>
   <v>       0.37562584       0.37398818       0.12479024 </v>
   <v>       0.37637575       0.37585525       0.37552473 </v>
   <v>       0.37317035       0.37485693       0.62354950 </v>
   <v>       0.37597807       0.37518766       0.87556040 </v>
   <v>       0.37570092       0.62584967       0.12346905 </v>
   <v>       0.37496480       0.62481354       0.37471725 </v>
   <v>       0.37566399       0.62484934       0.62480765 </v>
   <v>       0.37560860       0.62479631       0.87584513 </v>
   <v>       0.37402651       0.87620168       0.12482083 </v>
   <v>       0.37406893       0.87489242       0.37648809 </v>
   <v>       0.37615996       0.87519367       0.62468951 </v>
   <v>       0.37545297       0.87401807       0.87689105 </v>
   <v>       0.62550754       0.12441827       0.12548726 </v>
   <v>       0.62574227       0.12293098       0.37705846 </v>
   <v>       0.62601435       0.12538619       0.62524637 </v>
   <v>       0.62353026       0.12465315       0.87542804 </v>
   <v>       0.62484050       0.37533630       0.12367701 </v>
   <v>       0.62505686       0.37440647       0.37585689 </v>
   <v>       0.62695373       0.37460065       0.62569020 </v>
   <v>       0.62606653       0.37423870       0.87463366 </v>
   <v>       0.62445741       0.62495330       0.12525033 </v>
   <v>       0.62508953       0.62539294       0.37432980 </v>
   <v>       0.62535130       0.62443853       0.62484131 </v>
   <v>       0.62448990       0.62568203       0.87440844 </v>
   <v>       0.62504532       0.87480398       0.12469258 </v>
   <v>       0.62513657       0.87608606       0.37506434 </v>
   <v>       0.62460115       0.87432904       0.62466971 </v>
   <v>       0.62401590       0.87438809       0.87570468 </v>
   <v>       0.87459108       0.12515898       0.12522558 </v>
   <v>       0.87390124       0.12473736       0.37416255 </v>
   <v>       0.87514410       0.12327076       0.62537270 </v>
   <v>       0.87570601       0.12645794       0.87449803 </v>
   <v>       0.87675342       0.37477907       0.12492174 </v>
   <v>       0.87666488       0.37455489       0.37592469 </v>
   <v>       0.87379111       0.37607809       0.62461554 </v>
   <v>       0.87426036       0.37412448       0.87523774 </v>
   <v>       0.87499250       0.62572832       0.12471263 </v>
   <v>       0.87510398       0.62476457       0.37572531 </v>
   <v>       0.87515011       0.62614494       0.62509049 </v>
   <v>       0.87486001       0.62430510       0.87566989 </v>
   <v>       0.87489277       0.87527441       0.12427678 </v>
   <v>       0.87548939       0.87473344       0.37425357 </v>
   <v>       0.87482686       0.87635410       0.62412880 </v>
   <v>       0.87435460       0.87443919       0.87563775 </v>
  </varray>
  <varray name="velocities" >
   <v>       0.00029846       0.00000977      -0.00028837 </v>
   <v>       0.00012428       0.00022360      -0.00018383 </v>
   <v>       0.00001026       0.00000934       0.00009732 </v>
   <v>      -0.00003777       0.00013431      -0.00010028 </v>
   <v>      -0.00040719      -0.00020418      -0.00001583 </v>
   <v>      -0.00001613       0.00001245      -0.00026683 </v>
   <v>      -0.00002333       0.00014891       0.00015823 </v>
   <v>      -0.00005440       0.00010911       0.00006053 </v>
   <v>      -0.00003416      -0.00025476       0.00030600 </v>
   <v>       0.00007791      -0.00016103       0.00019611 </v>
   <v>      -0.00015667      -0.00013630       0.00004562 </v>
   <v>       0.00010567       0.00006794       0.00022700 </v>
   <v>      -0.00005082       0.00002498      -0.00004226 </v>
   <v>       0.00008819      -0.00015934      -0.00006761 </v>
   <v>      -0.00024395      -0.00010238      -0.00001575 </v>
   <v>      -0.00037637       0.00002525       0.00015730 </v>
   <v>       0.00002340      -0.00003915      -0.00008664 </v>
   <v>       0.00003414       0.00034881       0.00009085 </v>
   <v>      -0.00007061       0.00008079       0.00008924 </v>
   <v>       0.00009289       0.00002123       0.00011330 </v>
   <v>      -0.00018856       0.00005735      -0.00012252 </v>
   <v>       0.00023534      -0.00023646      -0.00014881 </v>
   <v>       0.00015615      -0.00017095       0.00001594 </v>
   <v>      -0.00008207       0.00001193       0.00016474 </v>
   <v>       0.00002327       0.00002092       0.00009751 </v>
   <v>      -0.00005387       0.00001861       0.00013545 </v>
   <v>      -0.00022461       0.00035471      -0.00011273 </v>
   <v>       0.00000539       0.00035718      -0.00002499 </v>
   <v>      -0.00031758      -0.00003638      -0.00000286 </v>
   <v>       0.00019501       0.00006227      -0.00004156 </v>
   <v>      -0.00032840      -0.00014204       0.00000198 </v>
   <v>       0.00005894       0.00000456       0.00017550 </v>
   <v>       0.00020133      -0.00001583       0.00018046 </v>
   <v>       0.00027126      -0.00014457       0.00006651 </v>
   <v>      -0.00006095      -0.00009367      -0.00001830 </v>
   <v>      -0.00009336       0.00003981      -0.00014702 </v>
   <v>       0.00008518       0.00033964      -0.00028258 </v>
   <v>       0.00015349      -0.00029168       0.00013086 </v>
   <v>      -0.00009271       0.00008682       0.00005975 </v>
   <v>       0.00007671       0.00037683       0.00007949 </v>
   <v>      -0.00005946       0.00008265       0.00004404 </v>
   <v>       0.00005227      -0.00018884      -0.00016129 </v>
   <v>      -0.00022182       0.00018845      -0.00019051 </v>
   <v>      -0.00002113       0.00015199       0.00010145 </v>
   <v>      -0.00029825      -0.00002189       0.00001659 </v>
   <v>       0.00007572       0.00005171       0.00001402 </v>
   <v>      -0.00004093       0.00011739      -0.00036768 </v>
   <v>      -0.00017406       0.00006645       0.00035932 </v>
   <v>       0.00017544      -0.00010355       0.00000429 </v>
   <v>       0.00006795      -0.00016988       0.00004486 </v>
   <v>      -0.00020314      -0.00001963      -0.00018228 </v>
   <v>      -0.00018135       0.00010959      -0.00020044 </v>
   <v>      -0.00006154      -0.00020023       0.00016566 </v>
   <v>      -0.00020296      -0.00007673      -0.00008565 </v>
   <v>      -0.00001583      -0.00037310       0.00013281 </v>
   <v>       0.00027667       0.00017941       0.00004642 </v>
   <v>       0.00003785      -0.00014732       0.00008934 </v>
   <v>      -0.00037375      -0.00018526      -0.00019890 </v>
   <v>       0.00007241       0.00003713      -0.00005686 </v>
   <v>       0.00007735      -0.00039941       0.00016918 </v>
   <v>       0.00025039      -0.00009735       0.00007964 </v>
   <v>      -0.00003752      -0.00012010       0.00006258 </v>
   <v>       0.00002950      -0.00009971      -0.00007493 </v>
   <v>       0.00009281      -0.00004082       0.00011574 </v>
   <v>      -0.00030541      -0.00003950       0.00017002 </v>
   <v>      -0.00003447       0.00036609       0.00014088 </v>
   <v>       0.00001085      -0.00008829      -0.00005690 </v>
   <v>      -0.00025464       0.00001969      -0.00001216 </v>
   <v>       0.00006471      -0.00007114      -0.00038838 </v>
   <v>      -0.00013871       0.00006137      -0.00039677 </v>
   <v>       0.00004019       0.00010527       0.00039269 </v>
   <v>       0.00012924       0.00007250       0.00023535 </v>
   <v>      -0.00013457       0.00018152       0.00006594 </v>
   <v>       0.00005413       0.00006723      -0.00035750 </v>
   <v>       0.00007407      -0.00016924      -0.00019438 </v>
   <v>       0.00032227       0.00029746      -0.00017504 </v>
   <v>       0.00001873       0.00032875      -0.00020446 </v>
   <v>       0.00017655       0.00026885      -0.00023035 </v>
   <v>       0.00013338      -0.00011797      -0.00004824 </v>
   <v>      -0.00026067       0.00008782      -0.00021477 </v>
   <v>       0.00002025      -0.00003486       0.00015998 </v>
   <v>       0.00018062      -0.00023154       0.00013023 </v>
   <v>       0.00015848      -0.00002963      -0.00004532 </v>
   <v>      -0.00000256      -0.00006149      -0.00010849 </v>
   <v>       0.00012479      -0.00020148      -0.00004146 </v>
   <v>       0.00027363       0.00016988       0.00010384 </v>
   <v>      -0.00036426      -0.00002802      -0.00028835 </v>
   <v>       0.00019455       0.00003776       0.00011117 </v>
   <v>       0.00013911       0.00016893      -0.00030424 </v>
   <v>      -0.00000708      -0.00003704      -0.00005712 </v>
   <v>       0.00013200      -0.00002968      -0.00003841 </v>
   <v>       0.00012074      -0.00004081       0.00016824 </v>
   <v>      -0.00019396       0.00023943      -0.00003493 </v>
   <v>      -0.00018550      -0.00002145       0.00029591 </v>
   <v>       0.00023043       0.00003812      -0.00006104 </v>
   <v>       0.00008922      -0.00019529       0.00037656 </v>
   <v>       0.00010094      -0.00011575       0.00009745 </v>
   <v>       0.00014746      -0.00041175       0.00040983 </v>
   <v>       0.00020161       0.00007698       0.00004968 </v>
   <v>      -0.00029241      -0.00006890       0.00008538 </v>
   <v>      -0.00003161       0.00006634      -0.00026322 </v>
   <v>       0.00001156      -0.00011857       0.00017028 </v>
   <v>       0.00038853      -0.00007950       0.00013727 </v>
   <v>       0.00021260      -0.00015128      -0.00007254 </v>
   <v>      -0.00010804      -0.00000948       0.00004970 </v>
   <v>       0.00001776       0.00007796      -0.00013404 </v>
   <v>       0.00006999      -0.00011185      -0.00003166 </v>
   <v>      -0.00010119       0.00013522      -0.00011720 </v>
   <v>       0.00000915      -0.00003952      -0.00006073 </v>
   <v>       0.00002732       0.00021543       0.00001253 </v>
   <v>      -0.00007937      -0.00013410      -0.00006579 </v>
   <v>      -0.00019578      -0.00012182       0.00014037 </v>
   <v>      -0.00008191       0.00003159       0.00004462 </v>
   <v>      -0.00021862      -0.00005225      -0.00016671 </v>
   <v>       0.00002895      -0.00034367       0.00007417 </v>
   <v>       0.00013988       0.00028970      -0.00010009 </v>
   <v>       0.00034825      -0.00004396      -0.00001512 </v>
   <v>       0.00033083      -0.00008885       0.00018370 </v>
   <v>      -0.00023993       0.00021465      -0.00007595 </v>
   <v>      -0.00014697      -0.00017430       0.00004779 </v>
   <v>      -0.00000164       0.00014441      -0.00005666 </v>
   <v>       0.00002057      -0.00004744       0.00014391 </v>
   <v>       0.00003016       0.00022775       0.00001843 </v>
   <v>      -0.00002755      -0.00013902       0.00013372 </v>
   <v>      -0.00002109       0.00005471      -0.00014408 </v>
   <v>       0.00009753      -0.00005330      -0.00014901 </v>
   <v>      -0.00003469       0.00026929      -0.00017329 </v>
   <v>      -0.00012881      -0.00011128       0.00012642 </v>
  </varray>
 </structure>
 <calculation>
  <scstep>
   <time name="diag">    4.11    4.11</time>
   <time name="diis">   27.42   27.42</time>
   <time name="orth">    1.50    1.50</time>
   <time name="total">   34.96   34.97</time>
   <energy>
    <i name="alphaZ">   5761.72331717 </i>
    <i name="ewald"> -37877.21541229 </i>
    <i name="hartreedc">   -365.75216072 </i>
    <i name="XCdc">  -5974.96992672 </i>
    <i name="pawpsdc"> 204022.54460211 </i>
    <i name="pawaedc">-196687.85515763 </i>
    <i name="eentropy">     -0.57002218 </i>
    <i name="bandstr">   2729.66519274 </i>
    <i name="atom">  26187.24535810 </i>
    <i name="e_fr_energy">  -2205.18420942 </i>
    <i name="e_wo_entrp">  -2204.61418724 </i>
    <i name="e_0_energy">  -2204.89919833 </i>
   </energy>
  </scstep>
  <scstep>
   <time name="diag">    4.02    4.02</time>
   <time name="diis">   21.79   21.80</time>
   <time name="orth">    1.49    1.49</time>
   <time name="total">   29.15   29.15</time>
   <energy>
    <i name="e_fr_energy">  -1984.85416204 </i>
    <i name="e_wo_entrp">  -1984.38995418 </i>
    <i name="e_0_energy">  -1984.62205811 </i>
   </energy>
  </scstep>
  <scstep>
   <time name="diag">    4.02    4.02</time>
   <time name="diis">   16.30   16.30</time>
   <time name="orth">    1.42    1.42</time>
   <time name="total">   23.64   23.64</time>
   <energy>
    <i name="e_fr_energy">  -1695.06990779 </i>
    <i name="e_wo_entrp">  -1694.67467794 </i>
    <i name="e_0_energy">  -1694.87229287 </i>
   </energy>
  </scstep>
  <scstep>
   <time name="diag">    4.10    4.10</time>
   <time name="diis">   18.66   18.66</time>
   <time name="orth">    1.42    1.42</time>
   <time name="total">   26.02   26.03</time>
   <energy>
    <i name="e_fr_energy">  -1698.67343592 </i>
    <i name="e_wo_entrp">  -1698.40879344 </i>
    <i name="e_0_energy">  -1698.54111468 </i>
   </energy>
  </scstep>
  <scstep>
   <time name="diag">    4.02    4.03</time>
   <time name="diis">   16.21   16.21</time>
   <time name="orth">    1.43    1.43</time>
   <time name="total">   23.52   23.53</time>
   <energy>
    <i name="e_fr_energy">  -1665.67762075 </i>
    <i name="e_wo_entrp">  -1665.64880570 </i>
    <i name="e_0_energy">  -1665.66321322 </i>
   </energy>
  </scstep>
  <scstep>
   <time name="diag">    4.04    4.04</time>
   <time name="diis">   18.99   18.99</time>
   <time name="orth">    1.51    1.51</time>
   <time name="total">   26.40   26.41</time>
   <energy>
    <i name="e_fr_energy">  -1672.71574656 </i>
    <i name="e_wo_entrp">  -1672.71174333 </i>
    <i name="e_0_energy">  -1672.71374495 </i>
   </energy>
  </scstep>
  <scstep>
   <time name="diag">    4.05    4.05</time>
   <time name="diis">   15.88   15.89</time>
   <time name="orth">    1.42    1.42</time>
   <time name="total">   23.24   23.25</time>
   <energy>
    <i name="e_fr_energy">  -1667.01382110 </i>
    <i name="e_wo_entrp">  -1667.01372365 </i>
    <i name="e_0_energy">  -1667.01377238 </i>
   </energy>
  </scstep>
  <scstep>
   <time name="diag">    4.05    4.05</time>
   <time name="diis">   18.77   18.77</time>
   <time name="orth">    1.42    1.42</time>
   <time name="total">   26.09   26.09</time>
   <energy>
    <i name="e_fr_energy">  -1668.31568677 </i>
    <i name="e_wo_entrp">  -1668.31549804 </i>
    <i name="e_0_energy">  -1668.31559240 </i>
   </energy>
  </scstep>
  <scstep>
   <time name="diag">    4.07    4.07</time>
   <time name="diis">   15.51   15.51</time>
   <time name="orth">    1.42    1.42</time>
   <time name="total">   22.87   22.87</time>
   <energy>
    <i name="e_fr_energy">  -1667.06189895 </i>
    <i name="e_wo_entrp">  -1667.06180968 </i>
    <i name="e_0_energy">  -1667.06185431 </i>
   </energy>
  </scstep>
  <scstep>
   <time name="diag">    4.11    4.11</time>
   <time name="diis">   18.68   18.68</time>
   <time name="orth">    1.43    1.43</time>
   <time name="total">   26.06   26.06</time>
   <energy>
    <i name="e_fr_energy">  -1666.88802595 </i>
    <i name="e_wo_entrp">  -1666.88794548 </i>
    <i name="e_0_energy">  -1666.88798571 </i>
   </energy>
  </scstep>
  <scstep>
   <time name="diag">    4.04    4.04</time>
   <time name="diis">   18.37   18.38</time>
   <time name="orth">    1.42    1.42</time>
   <time name="total">   25.72   25.72</time>
   <energy>
    <i name="e_fr_energy">  -1666.91629970 </i>
    <i name="e_wo_entrp">  -1666.91621513 </i>
    <i name="e_0_energy">  -1666.91625742 </i>
   </energy>
  </scstep>
  <scstep>
   <time name="diag">    4.03    4.03</time>
   <time name="diis">   20.22   20.23</time>
   <time name="orth">    1.42    1.42</time>
   <time name="total">   27.54   27.55</time>
   <energy>
    <i name="e_fr_energy">  -1666.91477228 </i>
    <i name="e_wo_entrp">  -1666.91468596 </i>
    <i name="e_0_energy">  -1666.91472912 </i>
   </energy>
  </scstep>
  <scstep>
   <time name="diag">    4.12    4.12</time>
   <time name="diis">   19.09   19.09</time>
   <time name="orth">    1.42    1.42</time>
   <time name="total">   26.53   26.54</time>
   <energy>
    <i name="e_fr_energy">  -1666.91630963 </i>
    <i name="e_wo_entrp">  -1666.91622104 </i>
    <i name="e_0_energy">  -1666.91626533 </i>
   </energy>
  </scstep>
  <scstep>
   <time name="diag">    4.03    4.03</time>
   <time name="diis">   17.18   17.18</time>
   <time name="orth">    1.42    1.42</time>
   <time name="total">   24.51   24.51</time>
   <energy>
    <i name="e_fr_energy">  -1666.91604465 </i>
    <i name="e_wo_entrp">  -1666.91595422 </i>
    <i name="e_0_energy">  -1666.91599944 </i>
   </energy>
  </scstep>
  <scstep>
   <time name="diag">    4.02    4.02</time>
   <time name="diis">   17.85   17.85</time>
   <time name="orth">    1.42    1.42</time>
   <time name="total">   25.17   25.18</time>
   <energy>
    <i name="e_fr_energy">  -1666.91525911 </i>
    <i name="e_wo_entrp">  -1666.91516697 </i>
    <i name="e_0_energy">  -1666.91521304 </i>
   </energy>
  </scstep>
  <scstep>
   <time name="diag">    4.01    4.01</time>
   <time name="diis">   18.61   18.61</time>
   <time name="orth">    1.43    1.43</time>
   <time name="total">   25.93   25.93</time>
   <energy>
    <i name="e_fr_energy">  -1666.91488824 </i>
    <i name="e_wo_entrp">  -1666.91479482 </i>
    <i name="e_0_energy">  -1666.91484153 </i>
   </energy>
  </scstep>
  <scstep>
   <time name="diag">    3.94    3.94</time>
   <time name="diis">    9.22    9.22</time>
   <time name="orth">    1.42    1.42</time>
   <time name="total">   15.43   15.43</time>
   <energy>
    <i name="alphaZ">   5761.72331717 </i>
    <i name="ewald"> -37877.21541229 </i>
    <i name="hartreedc">   -323.30491209 </i>
    <i name="XCdc">  -6049.06507194 </i>
    <i name="pawpsdc"> 109907.63819273 </i>
    <i name="pawaedc">-102528.64384033 </i>
    <i name="eentropy">     -0.00009443 </i>
    <i name="bandstr">   3254.70760373 </i>
    <i name="atom">  26187.24535810 </i>
    <i name="e_fr_energy">  -1666.91485935 </i>
    <i name="e_wo_entrp">  -1666.91476492 </i>
    <i name="e_0_energy">  -1666.91481213 </i>
   </energy>
  </scstep>
  <structure>
   <crystal>
    <varray name="basis" >
     <v>      12.74965600       0.00000000       0.00000000 </v>
     <v>       0.00000000      12.74965600       0.00000000 </v>
     <v>       0.00000000       0.00000000      12.74965600 </v>
    </varray>
    <i name="volume">   2072.50411503 </i>
    <varray name="rec_basis" >
     <v>       0.07843349       0.00000000       0.00000000 </v>
     <v>       0.00000000       0.07843349       0.00000000 </v>
     <v>       0.00000000       0.00000000       0.07843349 </v>
    </varray>
   </crystal>
   <varray name="positions" >
    <v>       0.00150059       0.00004885       0.99855281 </v>
    <v>       0.00062457       0.00112337       0.24907665 </v>
    <v>       0.00005134       0.00004668       0.50049286 </v>
    <v>       0.99981154       0.00067576       0.74949838 </v>
    <v>       0.99795363       0.24897599       0.99992028 </v>
    <v>       0.99991822       0.25006322       0.24865911 </v>
    <v>       0.99988290       0.25074888       0.50079452 </v>
    <v>       0.99972592       0.25054616       0.75030514 </v>
    <v>       0.99982628       0.49871939       0.00153612 </v>
    <v>       0.00039281       0.49919186       0.25098514 </v>
    <v>       0.99921271       0.49931448       0.50022792 </v>
    <v>       0.00053123       0.50033988       0.75113743 </v>
    <v>       0.99974460       0.75012509       0.99978657 </v>
    <v>       0.00044217       0.74919599       0.24966211 </v>
    <v>       0.99877356       0.74948411       0.49992235 </v>
    <v>       0.99810934       0.75012501       0.75079255 </v>
    <v>       0.25011617       0.99980132       0.99956451 </v>
    <v>       0.25016999       0.00175188       0.25045521 </v>
    <v>       0.24964511       0.00040637       0.50044753 </v>
    <v>       0.25046527       0.00010713       0.75057004 </v>
    <v>       0.24905270       0.25029037       0.99938431 </v>
    <v>       0.25118099       0.24881078       0.24925232 </v>
    <v>       0.25078564       0.24913824       0.50008061 </v>
    <v>       0.24958654       0.25005803       0.75082770 </v>
    <v>       0.25011574       0.50010429       0.00048937 </v>
    <v>       0.24972758       0.50009464       0.25068394 </v>
    <v>       0.24887383       0.50178366       0.49943515 </v>
    <v>       0.25002417       0.50179380       0.74987353 </v>
    <v>       0.24840584       0.74981439       0.99998429 </v>
    <v>       0.25097910       0.75030798       0.24979295 </v>
    <v>       0.24835115       0.74928436       0.50001021 </v>
    <v>       0.25029473       0.75002030       0.75088294 </v>
    <v>       0.50101063       0.99991942       0.00090666 </v>
    <v>       0.50136263       0.99927591       0.25033316 </v>
    <v>       0.49969292       0.99952940       0.49990515 </v>
    <v>       0.49953017       0.00019981       0.74926056 </v>
    <v>       0.50042859       0.25170921       0.99858015 </v>
    <v>       0.50076925       0.24853746       0.25065682 </v>
    <v>       0.49953163       0.25043605       0.50029714 </v>
    <v>       0.50038417       0.25189165       0.75040269 </v>
    <v>       0.49969937       0.50041303       0.00022302 </v>
    <v>       0.50026452       0.49905233       0.24919087 </v>
    <v>       0.49888410       0.50094551       0.49904177 </v>
    <v>       0.49989258       0.50076207       0.75051231 </v>
    <v>       0.49850009       0.74988819       0.00008138 </v>
    <v>       0.50038115       0.75025827       0.25007257 </v>
    <v>       0.49979478       0.75058993       0.49815050 </v>
    <v>       0.49912397       0.75033238       0.75180713 </v>
    <v>       0.75088059       0.99948129       0.00002389 </v>
    <v>       0.75033758       0.99914949       0.25022676 </v>
    <v>       0.74897816       0.99990483       0.49908438 </v>
    <v>       0.74909064       0.00055196       0.74899243 </v>
    <v>       0.74969252       0.24899720       0.00083341 </v>
    <v>       0.74897834       0.24961717       0.24956683 </v>
    <v>       0.74991960       0.24812687       0.50066632 </v>
    <v>       0.75139006       0.25090373       0.75023326 </v>
    <v>       0.75019082       0.49925998       0.00044974 </v>
    <v>       0.74811935       0.49907116       0.24899911 </v>
    <v>       0.75036572       0.50018755       0.49971382 </v>
    <v>       0.75038875       0.49799018       0.75085018 </v>
    <v>       0.75126188       0.74951220       0.00039951 </v>
    <v>       0.74980932       0.74939679       0.25031522 </v>
    <v>       0.75015040       0.74949845       0.49962276 </v>
    <v>       0.75046966       0.74979494       0.75058170 </v>
    <v>       0.12346498       0.12479882       0.12585747 </v>
    <v>       0.12482677       0.12683497       0.37570651 </v>
    <v>       0.12505369       0.12455496       0.62471133 </v>
    <v>       0.12372118       0.12509738       0.87493963 </v>
    <v>       0.12532336       0.37464377       0.12304832 </v>
    <v>       0.12429895       0.37530759       0.37300625 </v>
    <v>       0.12520316       0.37552902       0.62697322 </v>
    <v>       0.12564957       0.37536237       0.87618225 </v>
    <v>       0.12432365       0.62591169       0.12533294 </v>
    <v>       0.12527383       0.62533671       0.37320477 </v>
    <v>       0.12537499       0.62414825       0.62402412 </v>
    <v>       0.12662124       0.62649403       0.87411954 </v>
    <v>       0.12509460       0.87665030       0.12397518 </v>
    <v>       0.12588764       0.87634917       0.37384397 </v>
    <v>       0.12567162       0.87440969       0.62475754 </v>
    <v>       0.12369118       0.87544055       0.87392387 </v>
    <v>       0.37510058       0.12482311       0.12580376 </v>
    <v>       0.37590567       0.12383697       0.37565313 </v>
    <v>       0.37579619       0.12484975       0.62476977 </v>
    <v>       0.37498907       0.12469119       0.87445439 </v>
    <v>       0.37562584       0.37398818       0.12479024 </v>
    <v>       0.37637575       0.37585525       0.37552473 </v>
    <v>       0.37317035       0.37485693       0.62354950 </v>
    <v>       0.37597807       0.37518766       0.87556040 </v>
    <v>       0.37570092       0.62584967       0.12346905 </v>
    <v>       0.37496480       0.62481354       0.37471725 </v>
    <v>       0.37566399       0.62484934       0.62480765 </v>
    <v>       0.37560860       0.62479631       0.87584513 </v>
    <v>       0.37402651       0.87620168       0.12482083 </v>
    <v>       0.37406893       0.87489242       0.37648809 </v>
    <v>       0.37615996       0.87519367       0.62468951 </v>
    <v>       0.37545297       0.87401807       0.87689105 </v>
    <v>       0.62550754       0.12441827       0.12548726 </v>
    <v>       0.62574227       0.12293098       0.37705846 </v>
    <v>       0.62601435       0.12538619       0.62524637 </v>
    <v>       0.62353026       0.12465315       0.87542804 </v>
    <v>       0.62484050       0.37533630       0.12367701 </v>
    <v>       0.62505686       0.37440647       0.37585689 </v>
    <v>       0.62695373       0.37460065       0.62569020 </v>
    <v>       0.62606653       0.37423870       0.87463366 </v>
    <v>       0.62445741       0.62495330       0.12525033 </v>
    <v>       0.62508953       0.62539294       0.37432980 </v>
    <v>       0.62535130       0.62443853       0.62484131 </v>
    <v>       0.62448990       0.62568203       0.87440844 </v>
    <v>       0.62504532       0.87480398       0.12469258 </v>
    <v>       0.62513657       0.87608606       0.37506434 </v>
    <v>       0.62460115       0.87432904       0.62466971 </v>
    <v>       0.62401590       0.87438809       0.87570468 </v>
    <v>       0.87459108       0.12515898       0.12522558 </v>
    <v>       0.87390124       0.12473736       0.37416255 </v>
    <v>       0.87514410       0.12327076       0.62537270 </v>
    <v>       0.87570601       0.12645794       0.87449803 </v>
    <v>       0.87675342       0.37477907       0.12492174 </v>
    <v>       0.87666488       0.37455489       0.37592469 </v>
    <v>       0.87379111       0.37607809       0.62461554 </v>
    <v>       0.87426036       0.37412448       0.87523774 </v>
    <v>       0.87499250       0.62572832       0.12471263 </v>
    <v>       0.87510398       0.62476457       0.37572531 </v>
    <v>       0.87515011       0.62614494       0.62509049 </v>
    <v>       0.87486001       0.62430510       0.87566989 </v>
    <v>       0.87489277       0.87527441       0.12427678 </v>
    <v>       0.87548939       0.87473344       0.37425357 </v>
    <v>       0.87482686       0.87635410       0.62412880 </v>
    <v>       0.87435460       0.87443919       0.87563775 </v>
   </varray>
  </structure>
  <varray name="forces" >
   <v>      -0.34237298       0.00023874       0.22231963 </v>
   <v>      -0.13046292      -0.22097026       0.17207236 </v>
   <v>       0.00086288       0.00016817      -0.25478777 </v>
   <v>      -0.01501297      -0.16960527       0.00964744 </v>
   <v>       0.42606275       0.12758144       0.02215104 </v>
   <v>       0.04846788      -0.03880350       0.27395279 </v>
   <v>       0.02066422      -0.17454671      -0.13064632 </v>
   <v>       0.08534466      -0.02529815      -0.10093762 </v>
   <v>       0.11648263       0.27464249      -0.25292780 </v>
   <v>      -0.13048704       0.12155444      -0.18631009 </v>
   <v>       0.15953523       0.16343705       0.00780808 </v>
   <v>      -0.11551379      -0.00739904      -0.09700144 </v>
   <v>       0.05106256      -0.00602422       0.08520327 </v>
   <v>      -0.05116818       0.29609907      -0.00483702 </v>
   <v>       0.27041747       0.16057315      -0.04283179 </v>
   <v>       0.35688483       0.04951863      -0.24166497 </v>
   <v>       0.03351235       0.11828117       0.09019793 </v>
   <v>       0.02659959      -0.32273107      -0.03948827 </v>
   <v>       0.07335007      -0.09779687      -0.05355636 </v>
   <v>      -0.03333667      -0.03915442      -0.14234922 </v>
   <v>       0.18482093      -0.14627302       0.12463496 </v>
   <v>      -0.17454825       0.28236903       0.14792037 </v>
   <v>      -0.19576609       0.28005936      -0.03797902 </v>
   <v>       0.12626442       0.06386183      -0.16494009 </v>
   <v>       0.02579515       0.01239247      -0.07266503 </v>
   <v>       0.12520929      -0.06358148      -0.27156157 </v>
   <v>       0.12913627      -0.41026889       0.05083961 </v>
   <v>       0.11223814      -0.32377360       0.05911086 </v>
   <v>       0.25666096       0.15197982       0.05661050 </v>
   <v>      -0.16776107       0.13400296      -0.03053294 </v>
   <v>       0.27829603       0.22167576      -0.01366514 </v>
   <v>      -0.00027257       0.10362453      -0.22418304 </v>
   <v>      -0.16308484       0.05508038      -0.17647278 </v>
   <v>      -0.25627696       0.05105138      -0.02643368 </v>
   <v>       0.09460670       0.09018260       0.13684550 </v>
   <v>       0.12283160      -0.03065641       0.17276584 </v>
   <v>      -0.10846388      -0.44698316       0.28215463 </v>
   <v>      -0.07313912       0.16826796      -0.10120412 </v>
   <v>       0.19407254      -0.07617407       0.06525419 </v>
   <v>      -0.02760504      -0.30647131      -0.21168564 </v>
   <v>       0.13505293       0.00755627      -0.11621826 </v>
   <v>      -0.12861831       0.13947511       0.10909364 </v>
   <v>       0.27623655      -0.13282579       0.22966907 </v>
   <v>       0.07017255      -0.08244068      -0.20321856 </v>
   <v>       0.35265985       0.09656786       0.06679741 </v>
   <v>      -0.10256373       0.00948136      -0.10136493 </v>
   <v>       0.02281269      -0.12181537       0.44744609 </v>
   <v>       0.23217479      -0.00618537      -0.42216607 </v>
   <v>      -0.13695253       0.03710891      -0.09680335 </v>
   <v>       0.08759353       0.04559544      -0.10164844 </v>
   <v>       0.25172644      -0.12472554       0.17726199 </v>
   <v>       0.10669951      -0.16287673       0.21691786 </v>
   <v>      -0.00931072       0.06902738      -0.20741816 </v>
   <v>       0.27967788      -0.03160080       0.19835830 </v>
   <v>       0.05115691       0.31223556      -0.09203469 </v>
   <v>      -0.27390407      -0.27717503      -0.04769410 </v>
   <v>      -0.06191534       0.13732076      -0.12258167 </v>
   <v>       0.47573936       0.10190473       0.25934198 </v>
   <v>      -0.14688226      -0.07557092       0.07548231 </v>
   <v>      -0.07833195       0.52077329      -0.17119120 </v>
   <v>      -0.40193339       0.04269858      -0.05367566 </v>
   <v>       0.12499578       0.11185823      -0.09696570 </v>
   <v>      -0.11671470       0.12316002       0.10401585 </v>
   <v>      -0.22893443       0.03979651      -0.12004159 </v>
   <v>       0.32407914       0.15075114      -0.30072692 </v>
   <v>       0.03395218      -0.18957377      -0.08486022 </v>
   <v>       0.02054341       0.14278799       0.16834590 </v>
   <v>       0.23196077       0.04400021      -0.01822091 </v>
   <v>       0.00779737       0.02117513       0.40004967 </v>
   <v>       0.30220872      -0.02693198       0.39819499 </v>
   <v>      -0.09153223      -0.10726495      -0.39071188 </v>
   <v>      -0.13577116       0.00476703      -0.22650093 </v>
   <v>       0.14236040      -0.16801470      -0.13397251 </v>
   <v>      -0.12808929      -0.02447619       0.31944902 </v>
   <v>      -0.18817380       0.22406363       0.16085171 </v>
   <v>      -0.40183461      -0.27492994       0.21101019 </v>
   <v>      -0.04011627      -0.26650784       0.10115618 </v>
   <v>      -0.19835539      -0.19764220       0.17395530 </v>
   <v>      -0.19239535       0.02252560       0.04892436 </v>
   <v>       0.22224006      -0.05806682       0.09622754 </v>
   <v>       0.03005378       0.10231237      -0.15695927 </v>
   <v>      -0.10298985       0.21787231      -0.07944895 </v>
   <v>      -0.15290214       0.08325661       0.14567557 </v>
   <v>      -0.07386045       0.05249791       0.12689452 </v>
   <v>      -0.07584570       0.18216780       0.09879945 </v>
   <v>      -0.30691415      -0.23571624      -0.22155234 </v>
   <v>       0.33711660       0.12031084       0.35241430 </v>
   <v>      -0.21651291       0.04916494      -0.18462630 </v>
   <v>      -0.21894926      -0.20429910       0.39793641 </v>
   <v>      -0.00791674       0.05059671      -0.11314305 </v>
   <v>      -0.16073073       0.08980822       0.01180846 </v>
   <v>      -0.19908655      -0.01722517      -0.16028948 </v>
   <v>       0.15210354      -0.18382797       0.18202384 </v>
   <v>       0.14640990       0.01409728      -0.34677500 </v>
   <v>      -0.31633777      -0.12112524       0.21200674 </v>
   <v>      -0.27857243       0.22556683      -0.33603563 </v>
   <v>      -0.11539872       0.11770360      -0.00266686 </v>
   <v>      -0.20694119       0.41943230      -0.38115184 </v>
   <v>      -0.25679517      -0.05365626       0.08047363 </v>
   <v>       0.31239975       0.09388568      -0.04604899 </v>
   <v>       0.05717045      -0.18646176       0.28032938 </v>
   <v>       0.03689104       0.02931118      -0.22135453 </v>
   <v>      -0.44637785       0.07381734      -0.15696658 </v>
   <v>      -0.14595827       0.20084717       0.14972146 </v>
   <v>       0.09629908      -0.02738579      -0.07515560 </v>
   <v>      -0.03006714      -0.12913945       0.00270353 </v>
   <v>      -0.05415325       0.08908869       0.01599118 </v>
   <v>       0.16861898      -0.24085166       0.22836174 </v>
   <v>       0.01873845      -0.06246619       0.15159883 </v>
   <v>       0.00100365      -0.36490797      -0.06851582 </v>
   <v>       0.08272159       0.02074616       0.05178609 </v>
   <v>       0.21102830       0.11504025      -0.11278743 </v>
   <v>      -0.02720777      -0.04267128      -0.10075624 </v>
   <v>       0.22912394       0.05333352       0.15971327 </v>
   <v>       0.02604149       0.44325152      -0.07649017 </v>
   <v>      -0.26601799      -0.38617970       0.06270631 </v>
   <v>      -0.49468671       0.04696870       0.10672338 </v>
   <v>      -0.43275344       0.03682085      -0.24406163 </v>
   <v>       0.38006543      -0.19499357       0.18891140 </v>
   <v>       0.19845765       0.16654966       0.05058870 </v>
   <v>      -0.02794283      -0.25134927       0.16228209 </v>
   <v>      -0.04377338      -0.07023393      -0.23234686 </v>
   <v>       0.02655891      -0.25509793       0.06530860 </v>
   <v>       0.09045807      -0.00696497      -0.05257209 </v>
   <v>       0.07284303      -0.03323092       0.11347926 </v>
   <v>      -0.07238606       0.00378514       0.05832231 </v>
   <v>      -0.01197483      -0.31329557       0.19062876 </v>
   <v>       0.05802440       0.17864643      -0.22550329 </v>
  </varray>
  <varray name="stress" >
   <v>     -65.48113632       0.00464232      -0.01949732 </v>
   <v>       0.00464247     -65.54266126      -0.04483890 </v>
   <v>      -0.01949802      -0.04483920     -65.49118099 </v>
  </varray>
  <energy>
   <i name="e_fr_energy">  -1666.91485935 </i>
   <i name="e_wo_entrp">  -1666.91481213 </i>
   <i name="e_0_energy">     -0.00009443 </i>
   <i name="kinetic">     16.07302605 </i>
   <i name="lattice kinetic">      0.00000000 </i>
   <i name="nosepot">     -0.00272820 </i>
   <i name="nosekinetic">      0.00003667 </i>
   <i name="total">  -1650.84452482 </i>
  </energy>
  <time name="totalsc">  477.30  477.43</time>
 </calculation>
 <calculation>
  <scstep>
   <time name="diag">    3.95    3.95</time>
   <time name="diis">   14.65   14.65</time>
   <time name="orth">    1.43    1.43</time>
   <time name="total">   21.90   21.91</time>
   <energy>
    <i name="alphaZ">   5761.72331717 </i>
    <i name="ewald"> -37876.00046868 </i>
    <i name="hartreedc">   -324.16681398 </i>
    <i name="XCdc">  -6049.06471037 </i>
    <i name="pawpsdc"> 109907.50340677 </i>
    <i name="pawaedc">-102528.50892159 </i>
    <i name="eentropy">     -0.00011793 </i>
    <i name="bandstr">   3254.50877388 </i>
    <i name="atom">  26187.24535810 </i>
    <i name="e_fr_energy">  -1666.76017663 </i>
    <i name="e_wo_entrp">  -1666.76005870 </i>
    <i name="e_0_energy">  -1666.76011767 </i>
   </energy>
  </scstep>
  <scstep>
   <time name="diag">    4.04    4.04</time>
   <time name="diis">   16.06   16.06</time>
   <time name="orth">    1.42    1.42</time>
   <time name="total">   23.34   23.35</time>
   <energy>
    <i name="e_fr_energy">  -1666.76477134 </i>
    <i name="e_wo_entrp">  -1666.76465308 </i>
    <i name="e_0_energy">  -1666.76471221 </i>
   </energy>
  </scstep>
  <scstep>
   <time name="diag">    4.03    4.03</time>
   <time name="diis">   18.87   18.88</time>
   <time name="orth">    1.42    1.42</time>
   <time name="total">   26.19   26.20</time>
   <energy>
    <i name="e_fr_energy">  -1666.76520547 </i>
    <i name="e_wo_entrp">  -1666.76508648 </i>
    <i name="e_0_energy">  -1666.76514597 </i>
   </energy>
  </scstep>
  <scstep>
   <time name="diag">    4.03    4.03</time>
   <time name="diis">   15.47   15.47</time>
   <time name="orth">    1.48    1.48</time>
   <time name="total">   22.86   22.87</time>
   <energy>
    <i name="e_fr_energy">  -1666.76504660 </i>
    <i name="e_wo_entrp">  -1666.76492744 </i>
    <i name="e_0_energy">  -1666.76498702 </i>
   </energy>
  </scstep>
  <scstep>
   <time name="diag">    4.02    4.02</time>
   <time name="diis">    9.81    9.81</time>
   <time name="orth">    1.42    1.42</time>
   <time name="total">   17.13   17.13</time>
   <energy>
    <i name="e_fr_energy">  -1666.76500355 </i>
    <i name="e_wo_entrp">  -1666.76488407 </i>
    <i name="e_0_energy">  -1666.76494381 </i>
   </energy>
  </scstep>
  <scstep>
   <time name="diag">    4.07    4.07</time>
   <time name="diis">    8.70    8.70</time>
   <time name="orth">    1.42    1.42</time>
   <time name="total">   15.04   15.04</time>
   <energy>
    <i name="alphaZ">   5761.72331717 </i>
    <i name="ewald"> -37876.00046868 </i>
    <i name="hartreedc">   -324.25105910 </i>
    <i name="XCdc">  -6049.06879684 </i>
    <i name="pawpsdc"> 109923.05322171 </i>
    <i name="pawaedc">-102544.07661720 </i>
    <i name="eentropy">     -0.00011962 </i>
    <i name="bandstr">   3254.61015844 </i>
    <i name="atom">  26187.24535810 </i>
    <i name="e_fr_energy">  -1666.76500601 </i>
    <i name="e_wo_entrp">  -1666.76488639 </i>
    <i name="e_0_energy">  -1666.76494620 </i>
   </energy>
  </scstep>
  <structure>
   <crystal>
    <varray name="basis" >
     <v>      12.74965600       0.00000000       0.00000000 </v>
     <v>       0.00000000      12.74965600       0.00000000 </v>
     <v>       0.00000000       0.00000000      12.74965600 </v>
    </varray>
    <i name="volume">   2072.50411503 </i>
    <varray name="rec_basis" >
     <v>       0.07843349       0.00000000       0.00000000 </v>
     <v>       0.00000000       0.07843349       0.00000000 </v>
     <v>       0.00000000       0.00000000       0.07843349 </v>
    </varray>
   </crystal>
   <varray name="positions" >
    <v>       0.00179766       0.00005862       0.99826534 </v>
    <v>       0.00074832       0.00134607       0.24889351 </v>
    <v>       0.00006161       0.00005602       0.50058913 </v>
    <v>       0.99977370       0.00080938       0.74939813 </v>
    <v>       0.99754817       0.24877232       0.99990454 </v>
    <v>       0.99990229       0.25007551       0.24839339 </v>
    <v>       0.99985966       0.25089708       0.50095223 </v>
    <v>       0.99967187       0.25065517       0.75036526 </v>
    <v>       0.99979259       0.49846574       0.00184110 </v>
    <v>       0.00047019       0.49903132       0.25118050 </v>
[...]
       <r>     7.6249    24.4058   769.4558 </r>
       <r>     7.6692    60.4437   772.1333 </r>
       <r>     7.7135   105.0654   776.7873 </r>
       <r>     7.7578   128.8183   782.4934 </r>
       <r>     7.8021   113.5667   787.5240 </r>
       <r>     7.8464    79.2188   791.0331 </r>
       <r>     7.8907    60.0730   793.6941 </r>
       <r>     7.9350    63.4609   796.5052 </r>
       <r>     7.9793    67.6796   799.5031 </r>
       <r>     8.0236    55.8142   801.9755 </r>
       <r>     8.0679    37.0157   803.6152 </r>
       <r>     8.1122    31.4673   805.0090 </r>
       <r>     8.1565    45.3807   807.0192 </r>
       <r>     8.2008    63.4252   809.8287 </r>
       <r>     8.2451    64.2288   812.6738 </r>
       <r>     8.2894    44.8370   814.6600 </r>
       <r>     8.3337    21.4839   815.6116 </r>
       <r>     8.3780     7.5279   815.9451 </r>
       <r>     8.4223     4.8957   816.1619 </r>
       <r>     8.4666    15.2225   816.8362 </r>
       <r>     8.5109    48.2847   818.9751 </r>
       <r>     8.5552   112.4039   823.9541 </r>
       <r>     8.5995   191.0572   832.4173 </r>
       <r>     8.6438   238.5914   842.9860 </r>
       <r>     8.6881   219.4344   852.7061 </r>
       <r>     8.7323   148.3969   859.2795 </r>
       <r>     8.7766    74.3455   862.5727 </r>
       <r>     8.8209    31.8166   863.9821 </r>
       <r>     8.8652    24.1366   865.0513 </r>
       <r>     8.9095    38.9005   866.7744 </r>
       <r>     8.9538    60.6140   869.4594 </r>
       <r>     8.9981    78.2910   872.9274 </r>
       <r>     9.0424    94.5781   877.1168 </r>
       <r>     9.0867   119.6230   882.4157 </r>
       <r>     9.1310   150.1405   889.0663 </r>
       <r>     9.1753   166.5629   896.4444 </r>
       <r>     9.2196   155.5546   903.3349 </r>
       <r>     9.2639   124.9850   908.8713 </r>
       <r>     9.3082    92.7292   912.9789 </r>
       <r>     9.3525    67.5088   915.9692 </r>
       <r>     9.3968    46.4861   918.0284 </r>
       <r>     9.4411    27.1356   919.2304 </r>
       <r>     9.4854    12.2270   919.7720 </r>
       <r>     9.5297     4.0292   919.9505 </r>
       <r>     9.5740     0.9439   919.9923 </r>
       <r>     9.6183     0.1547   919.9992 </r>
       <r>     9.6626     0.0176   919.9999 </r>
       <r>     9.7069     0.0014   920.0000 </r>
       <r>     9.7512     0.0001   920.0000 </r>
       <r>     9.7955     0.0000   920.0000 </r>
       <r>     9.8398     0.0000   920.0000 </r>
       <r>     9.8841     0.0000   920.0000 </r>
       <r>     9.9283     0.0000   920.0000 </r>
       <r>     9.9726     0.0000   920.0000 </r>
       <r>    10.0169     0.0000   920.0000 </r>
       <r>    10.0612     0.0000   920.0000 </r>
       <r>    10.1055     0.0000   920.0000 </r>
       <r>    10.1498     0.0000   920.0000 </r>
       <r>    10.1941     0.0000   920.0000 </r>
       <r>    10.2384     0.0000   920.0000 </r>
       <r>    10.2827     0.0000   920.0000 </r>
       <r>    10.3270     0.0000   920.0000 </r>
       <r>    10.3713     0.0000   920.0000 </r>
      </set>
     </set>
    </array>
   </total>
  </dos>
 </calculation>
 <structure name="finalpos" >
  <crystal>
   <varray name="basis" >
    <v>      12.74965600       0.00000000       0.00000000 </v>
    <v>       0.00000000      12.74965600       0.00000000 </v>
    <v>       0.00000000       0.00000000      12.74965600 </v>
   </varray>
   <i name="volume">   2072.50411503 </i>
   <varray name="rec_basis" >
    <v>       0.07843349       0.00000000       0.00000000 </v>
    <v>       0.00000000       0.07843349       0.00000000 </v>
    <v>       0.00000000       0.00000000       0.07843349 </v>
   </varray>
  </crystal>
  <varray name="positions" >
   <v>       0.00238656       0.00007818       0.99769377 </v>
   <v>       0.00099379       0.00178811       0.24852989 </v>
   <v>       0.00008216       0.00007470       0.50077776 </v>
   <v>       0.99969779       0.00107402       0.74919774 </v>
   <v>       0.99674380       0.24836694       0.99987340 </v>
   <v>       0.99987117       0.25009948       0.24786612 </v>
   <v>       0.99981348       0.25119081       0.50126570 </v>
   <v>       0.99956506       0.25087286       0.75048395 </v>
   <v>       0.99972700       0.49796261       0.00244721 </v>
   <v>       0.00062294       0.49871212       0.25156832 </v>
   <v>       0.99874707       0.49891010       0.50036501 </v>
   <v>       0.00084506       0.50054353       0.75181585 </v>
   <v>       0.99959354       0.75019987       0.99966214 </v>
   <v>       0.00070530       0.74872614       0.24945911 </v>
   <v>       0.99804912       0.74918140       0.49987392 </v>
   <v>       0.99698996       0.75020217       0.75125783 </v>
   <v>       0.25018733       0.99968719       0.99930704 </v>
   <v>       0.25027318       0.00278947       0.25072672 </v>
   <v>       0.24943529       0.00064605       0.50071380 </v>
   <v>       0.25074307       0.00016974       0.75090605 </v>
   <v>       0.24849210       0.25045836       0.99902016 </v>
   <v>       0.25188226       0.24810918       0.24880995 </v>
   <v>       0.25124871       0.24863311       0.50012736 </v>
   <v>       0.24934381       0.25009559       0.75131742 </v>
   <v>       0.25018631       0.50016742       0.00077993 </v>
   <v>       0.24956944       0.50014872       0.25108279 </v>
   <v>       0.24820350       0.50283651       0.49909833 </v>
   <v>       0.25004349       0.50285652       0.74980020 </v>
   <v>       0.24746012       0.74970947       0.99997728 </v>
   <v>       0.25155955       0.75049855       0.24966737 </v>
   <v>       0.24737354       0.74886438       0.50001576 </v>
   <v>       0.25047159       0.75003690       0.75140326 </v>
   <v>       0.50161013       0.99987342       0.00144321 </v>
   <v>       0.50216937       0.99884356       0.25053199 </v>
   <v>       0.49951267       0.99925083       0.49985408 </v>
   <v>       0.49925349       0.00031840       0.74882421 </v>
   <v>       0.50068116       0.25271584       0.99774014 </v>
   <v>       0.50122778       0.24766695       0.25104666 </v>
   <v>       0.49925888       0.25069445       0.50047823 </v>
   <v>       0.50061357       0.25301379       0.75063528 </v>
   <v>       0.49952472       0.50066122       0.00035191 </v>
   <v>       0.50041777       0.49848962       0.24870998 </v>
   <v>       0.49822623       0.50150729       0.49847650 </v>
   <v>       0.49983113       0.50121587       0.75081106 </v>
   <v>       0.49761506       0.74982520       0.00013306 </v>
   <v>       0.50060550       0.75041367       0.25011182 </v>
   <v>       0.49967260       0.75093877       0.49705972 </v>
   <v>       0.49860816       0.75053159       0.75287356 </v>
   <v>       0.75140318       0.99917162       0.00003407 </v>
   <v>       0.75054394       0.99864107       0.25035852 </v>
   <v>       0.74837571       0.99984240       0.49854249 </v>
   <v>       0.74854947       0.00087626       0.74839703 </v>
   <v>       0.74950758       0.24839834       0.00132470 </v>
   <v>       0.74837715       0.24938607       0.24931538 </v>
   <v>       0.74987353       0.24701609       0.50106225 </v>
   <v>       0.75221255       0.25143425       0.75037119 </v>
   <v>       0.75030266       0.49882175       0.00071438 </v>
   <v>       0.74701109       0.49851811       0.24840953 </v>
   <v>       0.75057889       0.50029686       0.49954531 </v>
   <v>       0.75061867       0.49680629       0.75135308 </v>
   <v>       0.75200197       0.74922126       0.00063697 </v>
   <v>       0.74970024       0.74903957       0.25050027 </v>
   <v>       0.75023568       0.74920270       0.49940081 </v>
   <v>       0.75074171       0.74967358       0.75092561 </v>
   <v>       0.12255763       0.12468454       0.12635922 </v>
   <v>       0.12472428       0.12792811       0.37612685 </v>
   <v>       0.12508680       0.12429401       0.62454531 </v>
   <v>       0.12296361       0.12515771       0.87490260 </v>
   <v>       0.12551772       0.37443091       0.12189419 </v>
   <v>       0.12389117       0.37549099       0.37182678 </v>
   <v>       0.12532118       0.37584191       0.62814066 </v>
   <v>       0.12603358       0.37558003       0.87688207 </v>
   <v>       0.12392382       0.62645165       0.12552703 </v>
   <v>       0.12543267       0.62553775       0.37214101 </v>
   <v>       0.12559197       0.62364671       0.62344536 </v>
   <v>       0.12757699       0.62737889       0.87360023 </v>
   <v>       0.12514965       0.87762930       0.12336450 </v>
   <v>       0.12641184       0.87715040       0.37315762 </v>
   <v>       0.12606645       0.87405636       0.62461415 </v>
   <v>       0.12291522       0.87570242       0.87328214 </v>
   <v>       0.37516219       0.12472133       0.12627939 </v>
   <v>       0.37644476       0.12314830       0.37604166 </v>
   <v>       0.37626744       0.12476314       0.62463784 </v>
   <v>       0.37497934       0.12450812       0.87413241 </v>
   <v>       0.37599816       0.37338873       0.12466858 </v>
   <v>       0.37718825       0.37635842       0.37583012 </v>
   <v>       0.37208675       0.37477622       0.62269411 </v>
   <v>       0.37655575       0.37530238       0.87588883 </v>
   <v>       0.37611219       0.62635084       0.12256729 </v>
   <v>       0.37494334       0.62470383       0.37454270 </v>
   <v>       0.37605558       0.62476280       0.62469273 </v>
   <v>       0.37596533       0.62467336       0.87634547 </v>
   <v>       0.37344878       0.87691499       0.12472112 </v>
   <v>       0.37351642       0.87482845       0.37736628 </v>
   <v>       0.37684255       0.87530468       0.62451225 </v>
   <v>       0.37571288       0.87343843       0.87801154 </v>
   <v>       0.62580718       0.12407421       0.12577957 </v>
   <v>       0.62617887       0.12170727       0.37827749 </v>
   <v>       0.62661213       0.12561567       0.62539770 </v>
   <v>       0.62266155       0.12444902       0.87568292 </v>
   <v>       0.62474724       0.37553015       0.12289501 </v>
   <v>       0.62509258       0.37405152       0.37636166 </v>
   <v>       0.62810715       0.37436413       0.62609770 </v>
   <v>       0.62670036       0.37379039       0.87442020 </v>
   <v>       0.62413591       0.62492409       0.12539736 </v>
   <v>       0.62514197       0.62562324       0.37392770 </v>
   <v>       0.62555978       0.62410543       0.62474677 </v>
   <v>       0.62419097       0.62608105       0.87406316 </v>
   <v>       0.62507329       0.87468364       0.12451458 </v>
   <v>       0.62521856       0.87672222       0.37510003 </v>
   <v>       0.62436529       0.87392723       0.62447372 </v>
   <v>       0.62343432       0.87402577       0.87612271 </v>
   <v>       0.87434455       0.12525259       0.12535667 </v>
   <v>       0.87325166       0.12458204       0.37366678 </v>
   <v>       0.87523168       0.12225193       0.62559309 </v>
   <v>       0.87611831       0.12731640       0.87419943 </v>
   <v>       0.87778454       0.37464847       0.12487935 </v>
   <v>       0.87764550       0.37428932       0.37646913 </v>
   <v>       0.87308185       0.37671672       0.62439291 </v>
   <v>       0.87382494       0.37360615       0.87538258 </v>
   <v>       0.87498682       0.62615462       0.12454714 </v>
   <v>       0.87516450       0.62462028       0.37615063 </v>
   <v>       0.87524131       0.62682120       0.62514758 </v>
   <v>       0.87477986       0.62388777       0.87606967 </v>
   <v>       0.87483157       0.87543766       0.12384763 </v>
   <v>       0.87578002       0.87457360       0.37380810 </v>
   <v>       0.87472246       0.87715335       0.62361413 </v>
   <v>       0.87396975       0.87411025       0.87601078 </v>
  </varray>
  <varray name="velocities" >
   <v>       0.00029349       0.00000978      -0.00028517 </v>
   <v>       0.00012237       0.00022041      -0.00018133 </v>
   <v>       0.00001028       0.00000934       0.00009359 </v>
   <v>      -0.00003800       0.00013184      -0.00010018 </v>
   <v>      -0.00040099      -0.00020233      -0.00001551 </v>
   <v>      -0.00001542       0.00001188      -0.00026287 </v>
   <v>      -0.00002303       0.00014637       0.00015639 </v>
   <v>      -0.00005317       0.00010879       0.00005906 </v>
   <v>      -0.00003247      -0.00025081       0.00030236 </v>
   <v>       0.00007601      -0.00015926       0.00019338 </v>
   <v>      -0.00015436      -0.00013391       0.00004575 </v>
   <v>       0.00010399       0.00006785       0.00022564 </v>
   <v>      -0.00005008       0.00002490      -0.00004102 </v>
   <v>       0.00008742      -0.00015503      -0.00006771 </v>
   <v>      -0.00024004      -0.00010004      -0.00001637 </v>
   <v>      -0.00037124       0.00002600       0.00015381 </v>
   <v>       0.00002391      -0.00003740      -0.00008535 </v>
   <v>       0.00003455       0.00034415       0.00009030 </v>
   <v>      -0.00006955       0.00007937       0.00008848 </v>
   <v>       0.00009243       0.00002066       0.00011124 </v>
   <v>      -0.00018588       0.00005521      -0.00012072 </v>
   <v>       0.00023284      -0.00023234      -0.00014667 </v>
   <v>       0.00015331      -0.00016688       0.00001538 </v>
   <v>      -0.00008023       0.00001286       0.00016236 </v>
   <v>       0.00002367       0.00002112       0.00009647 </v>
   <v>      -0.00005204       0.00001768       0.00013149 </v>
   <v>      -0.00022276       0.00034875      -0.00011201 </v>
   <v>       0.00000705       0.00035254      -0.00002413 </v>
   <v>      -0.00031388      -0.00003415      -0.00000202 </v>
   <v>       0.00019259       0.00006425      -0.00004204 </v>
   <v>      -0.00032440      -0.00013879       0.00000177 </v>
   <v>       0.00005897       0.00000611       0.00017223 </v>
   <v>       0.00019895      -0.00001505       0.00017791 </v>
   <v>       0.00026754      -0.00014385       0.00006614 </v>
   <v>      -0.00005958      -0.00009239      -0.00001627 </v>
   <v>      -0.00009157       0.00003937      -0.00014454 </v>
   <v>       0.00008361       0.00033315      -0.00027851 </v>
   <v>       0.00015247      -0.00028930       0.00012942 </v>
   <v>      -0.00008987       0.00008574       0.00006073 </v>
   <v>       0.00007632       0.00037243       0.00007638 </v>
   <v>      -0.00005749       0.00008278       0.00004234 </v>
   <v>       0.00005038      -0.00018684      -0.00015972 </v>
   <v>      -0.00021782       0.00018657      -0.00018721 </v>
   <v>      -0.00002010       0.00015086       0.00009850 </v>
   <v>      -0.00029312      -0.00002048       0.00001761 </v>
   <v>       0.00007423       0.00005185       0.00001253 </v>
   <v>      -0.00004061       0.00011564      -0.00036122 </v>
   <v>      -0.00017070       0.00006638       0.00035325 </v>
   <v>       0.00017347      -0.00010303       0.00000287 </v>
   <v>       0.00006928      -0.00016924       0.00004337 </v>
   <v>      -0.00019945      -0.00002151      -0.00017966 </v>
   <v>      -0.00017983       0.00010723      -0.00019732 </v>
   <v>      -0.00006172      -0.00019927       0.00016265 </v>
   <v>      -0.00019890      -0.00007721      -0.00008275 </v>
   <v>      -0.00001508      -0.00036861       0.00013149 </v>
   <v>       0.00027269       0.00017533       0.00004572 </v>
   <v>       0.00003695      -0.00014536       0.00008756 </v>
   <v>      -0.00036691      -0.00018382      -0.00019515 </v>
   <v>       0.00007026       0.00003604      -0.00005578 </v>
   <v>       0.00007623      -0.00039183       0.00016674 </v>
   <v>       0.00024454      -0.00009677       0.00007887 </v>
   <v>      -0.00003568      -0.00011848       0.00006116 </v>
   <v>       0.00002780      -0.00009793      -0.00007343 </v>
   <v>       0.00008943      -0.00004024       0.00011399 </v>
   <v>      -0.00030072      -0.00003727       0.00016563 </v>
   <v>      -0.00003399       0.00036338       0.00013967 </v>
   <v>       0.00001115      -0.00008622      -0.00005443 </v>
   <v>      -0.00025128       0.00002036      -0.00001245 </v>
   <v>       0.00006483      -0.00007085      -0.00038256 </v>
   <v>      -0.00013430       0.00006100      -0.00039107 </v>
   <v>       0.00003884       0.00010373       0.00038710 </v>
   <v>       0.00012729       0.00007259       0.00023206 </v>
   <v>      -0.00013252       0.00017909       0.00006396 </v>
   <v>       0.00005225       0.00006689      -0.00035289 </v>
   <v>       0.00007130      -0.00016598      -0.00019207 </v>
   <v>       0.00031643       0.00029349      -0.00017197 </v>
   <v>       0.00001812       0.00032493      -0.00020304 </v>
   <v>       0.00017368       0.00026605      -0.00022787 </v>
   <v>       0.00013058      -0.00011766      -0.00004754 </v>
   <v>      -0.00025748       0.00008698      -0.00021341 </v>
   <v>       0.00002071      -0.00003338       0.00015771 </v>
   <v>       0.00017916      -0.00022840       0.00012909 </v>
   <v>       0.00015627      -0.00002843      -0.00004319 </v>
   <v>      -0.00000364      -0.00006075      -0.00010665 </v>
   <v>       0.00012372      -0.00019885      -0.00004003 </v>
   <v>       0.00026921       0.00016647       0.00010060 </v>
   <v>      -0.00035943      -0.00002626      -0.00028326 </v>
   <v>       0.00019140       0.00003853       0.00010849 </v>
   <v>       0.00013590       0.00016596      -0.00029845 </v>
   <v>      -0.00000719      -0.00003629      -0.00005881 </v>
   <v>       0.00012967      -0.00002836      -0.00003825 </v>
   <v>       0.00011784      -0.00004109       0.00016592 </v>
   <v>      -0.00019177       0.00023681      -0.00003225 </v>
   <v>      -0.00018340      -0.00002124       0.00029087 </v>
   <v>       0.00022584       0.00003635      -0.00005795 </v>
   <v>       0.00008513      -0.00019200       0.00037172 </v>
   <v>       0.00009925      -0.00011407       0.00009743 </v>
   <v>       0.00014439      -0.00040565       0.00040431 </v>
   <v>       0.00019789       0.00007621       0.00005089 </v>
   <v>      -0.00028793      -0.00006755       0.00008472 </v>
   <v>      -0.00003078       0.00006361      -0.00025919 </v>
   <v>       0.00001211      -0.00011817       0.00016709 </v>
   <v>       0.00038212      -0.00007846       0.00013499 </v>
   <v>       0.00021051      -0.00014836      -0.00007034 </v>
   <v>      -0.00010666      -0.00000989       0.00004860 </v>
   <v>       0.00001731       0.00007607      -0.00013402 </v>
   <v>       0.00006921      -0.00011056      -0.00003143 </v>
   <v>      -0.00009874       0.00013172      -0.00011387 </v>
   <v>       0.00000943      -0.00004046      -0.00005852 </v>
   <v>       0.00002733       0.00021006       0.00001152 </v>
   <v>      -0.00007819      -0.00013384      -0.00006507 </v>
   <v>      -0.00019275      -0.00012016       0.00013875 </v>
   <v>      -0.00008233       0.00003098       0.00004316 </v>
   <v>      -0.00021530      -0.00005150      -0.00016442 </v>
   <v>       0.00002934      -0.00033724       0.00007305 </v>
   <v>       0.00013600       0.00028408      -0.00009922 </v>
   <v>       0.00034105      -0.00004328      -0.00001355 </v>
   <v>       0.00032457      -0.00008834       0.00018020 </v>
   <v>      -0.00023435       0.00021185      -0.00007319 </v>
   <v>      -0.00014406      -0.00017188       0.00004857 </v>
   <v>      -0.00000203       0.00014075      -0.00005429 </v>
   <v>       0.00001995      -0.00004848       0.00014053 </v>
   <v>       0.00003054       0.00022406       0.00001937 </v>
   <v>      -0.00002623      -0.00013916       0.00013299 </v>
   <v>      -0.00001999       0.00005425      -0.00014245 </v>
   <v>       0.00009650      -0.00005327      -0.00014819 </v>
   <v>      -0.00003486       0.00026473      -0.00017055 </v>
   <v>      -0.00012798      -0.00010870       0.00012313 </v>
  </varray>
 </structure>
</modeling>
