unknown system                          
           1
    12.749656    0.000000    0.000000
     0.000000   12.749656    0.000000
     0.000000    0.000000   12.749656
   W 
 128
Direct configuration=     1
   0.00150059  0.00004885  0.99855281
   0.00062457  0.00112337  0.24907665
   0.00005134  0.00004668  0.50049286
   0.99981154  0.00067576  0.74949838
   0.99795363  0.24897599  0.99992028
   0.99991822  0.25006322  0.24865911
   0.99988290  0.25074888  0.50079452
   0.99972592  0.25054616  0.75030514
   0.99982628  0.49871939  0.00153612
   0.00039281  0.49919186  0.25098514
   0.99921271  0.49931448  0.50022792
   0.00053123  0.50033988  0.75113743
   0.99974460  0.75012509  0.99978657
   0.00044217  0.74919599  0.24966211
   0.99877356  0.74948411  0.49992235
   0.99810934  0.75012501  0.75079255
   0.25011617  0.99980132  0.99956451
   0.25016999  0.00175188  0.25045521
   0.24964511  0.00040637  0.50044753
   0.25046527  0.00010713  0.75057004
   0.24905270  0.25029037  0.99938431
   0.25118099  0.24881078  0.24925232
   0.25078564  0.24913824  0.50008061
   0.24958654  0.25005803  0.75082770
   0.25011574  0.50010429  0.00048937
   0.24972758  0.50009464  0.25068394
   0.24887383  0.50178366  0.49943515
   0.25002417  0.50179380  0.74987353
   0.24840584  0.74981439  0.99998429
   0.25097910  0.75030798  0.24979295
   0.24835115  0.74928436  0.50001021
   0.25029473  0.75002030  0.75088294
   0.50101063  0.99991942  0.00090666
   0.50136263  0.99927591  0.25033316
   0.49969292  0.99952940  0.49990515
   0.49953017  0.00019981  0.74926056
   0.50042859  0.25170921  0.99858015
   0.50076925  0.24853746  0.25065682
   0.49953163  0.25043605  0.50029714
   0.50038417  0.25189165  0.75040269
   0.49969937  0.50041303  0.00022302
   0.50026452  0.49905233  0.24919087
   0.49888410  0.50094551  0.49904177
   0.49989258  0.50076207  0.75051231
   0.49850009  0.74988819  0.00008138
   0.50038115  0.75025827  0.25007257
   0.49979478  0.75058993  0.49815050
   0.49912397  0.75033238  0.75180713
   0.75088059  0.99948129  0.00002389
   0.75033758  0.99914949  0.25022676
   0.74897816  0.99990483  0.49908438
   0.74909064  0.00055196  0.74899243
   0.74969252  0.24899720  0.00083341
   0.74897834  0.24961717  0.24956683
   0.74991960  0.24812687  0.50066632
   0.75139006  0.25090373  0.75023326
   0.75019082  0.49925998  0.00044974
   0.74811935  0.49907116  0.24899911
   0.75036572  0.50018755  0.49971382
   0.75038875  0.49799018  0.75085018
   0.75126188  0.74951220  0.00039951
   0.74980932  0.74939679  0.25031522
   0.75015040  0.74949845  0.49962276
   0.75046966  0.74979494  0.75058170
   0.12346498  0.12479882  0.12585747
   0.12482677  0.12683497  0.37570651
   0.12505369  0.12455496  0.62471133
   0.12372118  0.12509738  0.87493963
   0.12532336  0.37464377  0.12304832
   0.12429895  0.37530759  0.37300625
   0.12520316  0.37552902  0.62697322
   0.12564957  0.37536237  0.87618225
   0.12432365  0.62591169  0.12533294
   0.12527383  0.62533671  0.37320477
   0.12537499  0.62414825  0.62402412
   0.12662124  0.62649403  0.87411954
   0.12509460  0.87665030  0.12397518
   0.12588764  0.87634917  0.37384397
   0.12567162  0.87440969  0.62475754
   0.12369118  0.87544055  0.87392387
   0.37510058  0.12482311  0.12580376
   0.37590567  0.12383697  0.37565313
   0.37579619  0.12484975  0.62476977
   0.37498907  0.12469119  0.87445439
   0.37562584  0.37398818  0.12479024
   0.37637575  0.37585525  0.37552473
   0.37317035  0.37485693  0.62354950
   0.37597807  0.37518766  0.87556040
   0.37570092  0.62584967  0.12346905
   0.37496480  0.62481354  0.37471725
   0.37566399  0.62484934  0.62480765
   0.37560860  0.62479631  0.87584513
   0.37402651  0.87620168  0.12482083
   0.37406893  0.87489242  0.37648809
   0.37615996  0.87519367  0.62468951
   0.37545297  0.87401807  0.87689105
   0.62550754  0.12441827  0.12548726
   0.62574227  0.12293098  0.37705846
   0.62601435  0.12538619  0.62524637
   0.62353026  0.12465315  0.87542804
   0.62484050  0.37533630  0.12367701
   0.62505686  0.37440647  0.37585689
   0.62695373  0.37460065  0.62569020
   0.62606653  0.37423870  0.87463366
   0.62445741  0.62495330  0.12525033
   0.62508953  0.62539294  0.37432980
   0.62535130  0.62443853  0.62484131
   0.62448990  0.62568203  0.87440844
   0.62504532  0.87480398  0.12469258
   0.62513657  0.87608606  0.37506434
   0.62460115  0.87432904  0.62466971
   0.62401590  0.87438809  0.87570468
   0.87459108  0.12515898  0.12522558
   0.87390124  0.12473736  0.37416255
   0.87514410  0.12327076  0.62537270
   0.87570601  0.12645794  0.87449803
   0.87675342  0.37477907  0.12492174
   0.87666488  0.37455489  0.37592469
   0.87379111  0.37607809  0.62461554
   0.87426036  0.37412448  0.87523774
   0.87499250  0.62572832  0.12471263
   0.87510398  0.62476457  0.37572531
   0.87515011  0.62614494  0.62509049
   0.87486001  0.62430510  0.87566989
   0.87489277  0.87527441  0.12427678
   0.87548939  0.87473344  0.37425357
   0.87482686  0.87635410  0.62412880
   0.87435460  0.87443919  0.87563775
Direct configuration=     2
   0.00179766  0.00005862  0.99826534
   0.00074832  0.00134607  0.24889351
   0.00006161  0.00005602  0.50058913
   0.99977370  0.00080938  0.74939813
   0.99754817  0.24877232  0.99990454
   0.99990229  0.25007551  0.24839339
   0.99985966  0.25089708  0.50095223
   0.99967187  0.25065517  0.75036526
   0.99979259  0.49846574  0.00184110
   0.00047019  0.49903132  0.25118050
   0.99905668  0.49917885  0.50027357
   0.00063643  0.50040779  0.75136405
   0.99969399  0.75015004  0.99974466
   0.00053015  0.74903786  0.24959448
   0.99853071  0.74938238  0.49990642
   0.99773441  0.75015047  0.75094887
   0.25013970  0.99976266  0.99947824
   0.25020424  0.00209938  0.25054590
   0.24957480  0.00048676  0.50053655
   0.25055803  0.00012820  0.75068277
   0.24886489  0.25034712  0.99926229
   0.25141562  0.24857547  0.24910411
   0.25094100  0.24896844  0.50009639
   0.24950498  0.25007022  0.75099178
   0.25013912  0.50012526  0.00058659
   0.24967423  0.50011299  0.25081828
   0.24864973  0.50213670  0.49932262
   0.25003003  0.50214967  0.74984879
   0.24808930  0.74977863  0.99998166
   0.25117343  0.75037081  0.24975126
   0.24802387  0.74914322  0.50001214
   0.25035367  0.75002529  0.75105753
   0.50121130  0.99990381  0.00108641
   0.50163285  0.99913154  0.25039957
   0.49963235  0.99943609  0.49988741
   0.49943731  0.00023950  0.74911424
   0.50051333  0.25204703  0.99829872
   0.50092245  0.24824646  0.25078727
   0.49943972  0.25052256  0.50035716
   0.50046077  0.25226724  0.75048131
   0.49964046  0.50049571  0.00026658
   0.50031626  0.49886406  0.24903002
   0.49866340  0.50113343  0.49885219
   0.49987174  0.50091373  0.75061293
   0.49820327  0.74986670  0.00009825
   0.50045646  0.75031002  0.25008618
   0.49975394  0.75070682  0.49778464
   0.49895085  0.75039880  0.75216474
   0.75105548  0.99937789  0.00002778
   0.75040590  0.99897979  0.25027120
   0.74877604  0.99988468  0.49890282
   0.74890971  0.00066089  0.74879287
   0.74963094  0.24879724  0.00099823
   0.74877652  0.24954030  0.24948199
   0.74990397  0.24775504  0.50079876
   0.75166562  0.25108201  0.75027949
   0.75022842  0.49911321  0.00053857
   0.74774753  0.49888630  0.24880127
   0.75043753  0.50022437  0.49965727
   0.75046579  0.49759289  0.75101867
   0.75151063  0.74941501  0.00047893
   0.74977231  0.74927715  0.25037740
   0.75017942  0.74939925  0.49954825
   0.75056153  0.74975428  0.75069695
   0.12316088  0.12475994  0.12602627
   0.12479244  0.12720030  0.37584705
   0.12506462  0.12446725  0.62465512
   0.12346748  0.12511726  0.87492739
   0.12538811  0.37457272  0.12266156
   0.12416147  0.37536886  0.37261109
   0.12524298  0.37563385  0.62736433
   0.12577826  0.37543489  0.87641668
   0.12418965  0.62609253  0.12539833
   0.12532744  0.62540384  0.37284856
   0.12544829  0.62397992  0.62383039
   0.12694188  0.62679038  0.87394536
   0.12511316  0.87697798  0.12377112
   0.12606339  0.87661723  0.37361432
   0.12580421  0.87429181  0.62470950
   0.12343140  0.87552814  0.87370948
   0.37512095  0.12478867  0.12596310
   0.37608588  0.12360631  0.37578304
   0.37595405  0.12482046  0.62472505
   0.37498621  0.12462991  0.87434642
   0.37575032  0.37378744  0.12474919
   0.37664814  0.37602417  0.37562767
   0.37280746  0.37482941  0.62326259
   0.37617174  0.37522563  0.87567082
   0.37583914  0.62601777  0.12316642
   0.37495768  0.62477670  0.37465966
   0.37579534  0.62482003  0.62476929
   0.37572853  0.62475542  0.87601273
   0.37383317  0.87644037  0.12478665
   0.37388402  0.87487102  0.37678259
   0.37638911  0.87523130  0.62462934
   0.37554105  0.87382370  0.87726625
   0.62560802  0.12430300  0.12558470
   0.62588888  0.12252093  0.37746674
   0.62621492  0.12546296  0.62529639
   0.62323912  0.12458463  0.87551323
   0.62480912  0.37540187  0.12341493
   0.62506858  0.37428801  0.37602627
   0.62734045  0.37452144  0.62582683
   0.62627854  0.37408824  0.87456173
   0.62434976  0.62494371  0.12529973
   0.62510717  0.62547037  0.37419576
   0.62542107  0.62432704  0.62480972
   0.62438940  0.62581627  0.87429218
   0.62505455  0.87476420  0.12463247
   0.62516390  0.87630000  0.37507659
   0.62452212  0.87419501  0.62460412
   0.62382097  0.87426674  0.87584459
   0.87450905  0.12519040  0.12526979
   0.87368354  0.12468532  0.37399649
   0.87517316  0.12292890  0.62544656
   0.87584481  0.12674607  0.87439819
   0.87709966  0.37473530  0.12490706
   0.87699395  0.37446619  0.37610740
   0.87355272  0.37629195  0.62454036
   0.87411420  0.37395085  0.87528574
   0.87499074  0.62587171  0.12465663
   0.87512437  0.62471684  0.37586827
   0.87518038  0.62637166  0.62510919
   0.87483283  0.62416604  0.87580341
   0.87487198  0.87532899  0.12413315
   0.87558663  0.87468015  0.37410479
   0.87479212  0.87662212  0.62395628
   0.87422602  0.87432864  0.87576325
Direct configuration=     3
   0.00209307  0.00006840  0.99797894
   0.00087143  0.00156770  0.24871122
   0.00007188  0.00006536  0.50068416
   0.99973579  0.00094218  0.74929792
   0.99714479  0.24856928  0.99988890
   0.99988659  0.25008761  0.24812899
   0.99983651  0.25104443  0.50110932
   0.99961823  0.25076407  0.75042489
   0.99975947  0.49821342  0.00214485
   0.00054693  0.49887138  0.25137494
   0.99890143  0.49904401  0.50031926
   0.00074107  0.50047568  0.75159021
   0.99964362  0.75017497  0.99970316
   0.00061787  0.74888117  0.24952681
   0.99828917  0.74928144  0.49989029
   0.99736120  0.75017617  0.75110402
   0.25016341  0.99972458  0.99939239
   0.25023863  0.00244533  0.25063641
   0.24950485  0.00056668  0.50062532
   0.25065064  0.00014908  0.75079480
   0.24867798  0.25040316  0.99914088
   0.25164942  0.24834153  0.24895662
   0.25109541  0.24879999  0.50011198
   0.24942404  0.25008273  0.75115505
   0.25016263  0.50014630  0.00068346
   0.24962148  0.50013103  0.25095130
   0.24842626  0.50248776  0.49921034
   0.25003643  0.50250398  0.74982433
   0.24777400  0.74974362  0.99997931
   0.25136696  0.75043429  0.24970941
   0.24769793  0.74900317  0.50001399
   0.25041262  0.75003079  0.75123103
   0.50141117  0.99988847  0.00126530
   0.50190183  0.99898741  0.25046585
   0.49957225  0.99934322  0.49987035
   0.49934505  0.00027903  0.74896875
   0.50059755  0.25238269  0.99801864
   0.50107531  0.24795625  0.25091724
   0.49934875  0.25060871  0.50041751
   0.50053725  0.25264136  0.75055890
   0.49958221  0.50057844  0.00030957
   0.50036738  0.49867645  0.24886970
   0.49844405  0.50132072  0.49866371
   0.49985123  0.50106502  0.75071256
   0.49790817  0.74984568  0.00011545
   0.50053126  0.75036182  0.25009929
   0.49971321  0.75082314  0.49742094
   0.49877886  0.75046521  0.75252032
   0.75122971  0.99927465  0.00003120
   0.75047466  0.99881031  0.25031515
   0.74857515  0.99986391  0.49872214
   0.74872930  0.00076903  0.74859435
   0.74956930  0.24859761  0.00116204
   0.74857605  0.24946328  0.24939813
   0.74988860  0.24738470  0.50093076
   0.75193986  0.25125892  0.75032548
   0.75026571  0.49896711  0.00062682
   0.74737800  0.49870193  0.24860468
   0.75050863  0.50026083  0.49960108
   0.75054244  0.49719812  0.75118634
   0.75175743  0.74931803  0.00055810
   0.74973592  0.74915805  0.25043911
   0.75020788  0.74930063  0.49947424
   0.75065228  0.74971382  0.75081162
   0.12285835  0.12472181  0.12619360
   0.12475826  0.12756472  0.37598718
   0.12507565  0.12438023  0.62459974
   0.12321489  0.12513735  0.87491506
   0.12545289  0.37450176  0.12227675
   0.12402546  0.37543000  0.37221785
   0.12528234  0.37573818  0.62775356
   0.12590629  0.37550744  0.87665001
   0.12405634  0.62627256  0.12546307
   0.12538042  0.62547086  0.37249390
   0.12552067  0.62381268  0.62363743
   0.12726056  0.62708540  0.87377220
   0.12513153  0.87730437  0.12356754
   0.12623817  0.87688434  0.37338549
   0.12593587  0.87417402  0.62466169
   0.12317269  0.87561544  0.87349555
   0.37514148  0.12475471  0.12612168
   0.37626560  0.12337670  0.37591257
   0.37611117  0.12479157  0.62468104
   0.37498299  0.12456887  0.87423906
   0.37587445  0.37358758  0.12470861
   0.37691904  0.37619195  0.37572952
   0.37244618  0.37480247  0.62297737
   0.37636435  0.37526385  0.87578034
   0.37597629  0.62618487  0.12286573
   0.37495053  0.62474012  0.37460151
   0.37592591  0.62479116  0.62473098
   0.37584749  0.62471445  0.87617955
   0.37364055  0.87667818  0.12475336
   0.37369982  0.87484970  0.37707541
   0.37661671  0.87526833  0.62457020
   0.37562776  0.87363043  0.87763983
   0.62570792  0.12418828  0.12568214
   0.62603447  0.12211292  0.37787318
   0.62641424  0.12553946  0.62534681
   0.62294947  0.12451657  0.87559821
   0.62477802  0.37546654  0.12315420
   0.62508047  0.37416969  0.37619458
   0.62772503  0.37444259  0.62596270
   0.62648986  0.37393875  0.87449054
   0.62424257  0.62493398  0.12534876
   0.62512466  0.62554717  0.37406173
   0.62549057  0.62421599  0.62477820
   0.62428971  0.62594933  0.87417703
   0.62506386  0.87472411  0.12457310
   0.62519123  0.87651216  0.37508850
   0.62444348  0.87406107  0.62453878
   0.62362706  0.87414594  0.87598396
   0.87442688  0.12522162  0.12531351
   0.87346696  0.12463354  0.37383120
   0.87520235  0.12258918  0.62552004
   0.87598231  0.12703232  0.87429865
   0.87744349  0.37469175  0.12489290
   0.87732092  0.37437766  0.37628894
   0.87331620  0.37650488  0.62446611
   0.87396900  0.37377803  0.87533400
   0.87498885  0.62601387  0.12460142
   0.87514455  0.62466876  0.37601010
   0.87521077  0.62659714  0.62512821
   0.87480609  0.62402694  0.87593668
   0.87485156  0.87538341  0.12399008
   0.87568352  0.87462687  0.37395628
   0.87475732  0.87688862  0.62378468
   0.87409773  0.87421895  0.87588766
