ITEM: TIMESTEP
0
ITEM: NUMBER OF ATOMS
128
ITEM: BOX BOUNDS pp pp pp
-6.4119999999999999e+00 6.4119999999999999e+00
-6.4119999999999999e+00 6.4119999999999999e+00
-6.4119999999999999e+00 6.4119999999999999e+00
ITEM: ATOMS id type x y z fx fy fz c_peratom 
1 1 -6.412 -6.412 -6.412 5.55112e-17 1.11022e-16 -2.77556e-17 -3.7323 
2 1 -4.809 -4.809 -4.809 1.66533e-15 1.70003e-15 2.47025e-15 -3.7323 
3 1 -3.206 -6.412 -6.412 1.8735e-16 5.55112e-17 5.55112e-17 -3.7323 
9 1 -6.412 -3.206 -6.412 -1.4988e-15 2.498e-16 1.60982e-15 -3.7323 
11 1 -3.206 -3.206 -6.412 -1.36696e-15 -1.2915e-15 9.49761e-17 -3.7323 
33 1 -6.412 -6.412 -3.206 -2.10942e-15 -2.16493e-15 3.77476e-15 -3.7323 
35 1 -3.206 -6.412 -3.206 5.89806e-17 -1.94289e-15 1.19089e-15 -3.7323 
41 1 -6.412 -3.206 -3.206 -4.21885e-15 1.38778e-16 3.60822e-16 -3.7323 
43 1 -3.206 -3.206 -3.206 -1.52135e-15 -1.30581e-15 -1.40556e-15 -3.7323 
4 1 -1.603 -4.809 -4.809 -1.66707e-15 9.99201e-16 2.45637e-15 -3.7323 
5 1 0 -6.412 -6.412 -6.76542e-17 -5.55112e-17 0 -3.7323 
6 1 1.603 -4.809 -4.809 1.61503e-15 8.88178e-16 2.45637e-15 -3.7323 
13 1 0 -3.206 -6.412 -6.41848e-17 -1.44329e-15 0 -3.7323 
37 1 0 -6.412 -3.206 -2.77556e-17 -2.16493e-15 1.22125e-15 -3.7323 
45 1 0 -3.206 -3.206 -8.67362e-18 -1.60982e-15 -1.41814e-15 -3.7323 
7 1 3.206 -6.412 -6.412 -2.77556e-17 -9.02056e-17 -9.02056e-17 -3.7323 
8 1 4.809 -4.809 -4.809 -1.97065e-15 1.63758e-15 2.42861e-15 -3.7323 
15 1 3.206 -3.206 -6.412 1.47798e-15 -1.31796e-15 -7.63278e-17 -3.7323 
39 1 3.206 -6.412 -3.206 1.66533e-16 -1.97758e-15 1.20607e-15 -3.7323 
47 1 3.206 -3.206 -3.206 1.90689e-15 -1.40513e-15 -1.36956e-15 -3.7323 
10 1 -4.809 -1.603 -4.809 2.44249e-15 -1.54217e-15 2.45637e-15 -3.7323 
17 1 -6.412 0 -6.412 0 5.55112e-17 0 -3.7323 
18 1 -4.809 1.603 -4.809 2.66454e-15 1.59595e-15 2.45637e-15 -3.7323 
19 1 -3.206 0 -6.412 -1.29757e-15 -7.11237e-17 2.77556e-17 -3.7323 
49 1 -6.412 0 -3.206 -2.9976e-15 6.93889e-17 1.77636e-15 -3.7323 
51 1 -3.206 0 -3.206 -1.50921e-15 -2.25514e-17 -1.32099e-15 -3.7323 
12 1 -1.603 -1.603 -4.809 -1.71954e-15 -1.71261e-15 2.55351e-15 -3.7323 
14 1 1.603 -1.603 -4.809 1.67054e-15 -1.68615e-15 2.55265e-15 -3.7323 
20 1 -1.603 1.603 -4.809 -1.71911e-15 1.70133e-15 2.55351e-15 -3.7323 
21 1 0 0 -6.412 -1.19696e-16 -1.75207e-16 2.77556e-17 -3.7323 
22 1 1.603 1.603 -4.809 1.63237e-15 1.64755e-15 2.55351e-15 -3.7323 
53 1 0 0 -3.206 -6.93889e-18 -6.245e-17 -1.40166e-15 -3.7323 
16 1 4.809 -1.603 -4.809 1.11022e-16 -4.88498e-15 2.44943e-15 -3.7323 
23 1 3.206 0 -6.412 1.70697e-15 6.245e-17 9.02056e-17 -3.7323 
24 1 4.809 1.603 -4.809 -2.73392e-15 1.59768e-15 2.41474e-15 -3.7323 
55 1 3.206 0 -3.206 1.81105e-15 -9.02056e-17 -1.48492e-15 -3.7323 
25 1 -6.412 3.206 -6.412 -1.11022e-16 1.80411e-15 6.07153e-17 -3.7323 
26 1 -4.809 4.809 -4.809 1.9984e-15 -2.17187e-15 2.53964e-15 -3.7323 
27 1 -3.206 3.206 -6.412 -1.4086e-15 1.53263e-15 3.46945e-17 -3.7323 
57 1 -6.412 3.206 -3.206 -2.88658e-15 1.57513e-15 1.72085e-15 -3.7323 
59 1 -3.206 3.206 -3.206 -1.49533e-15 1.86873e-15 -1.42508e-15 -3.7323 
28 1 -1.603 4.809 -4.809 -1.64972e-15 -1.25594e-15 2.30371e-15 -3.7323 
29 1 0 3.206 -6.412 -1.73472e-18 1.52656e-15 -1.31839e-16 -3.7323 
30 1 1.603 4.809 -4.809 1.65319e-15 -1.13798e-15 2.30371e-15 -3.7323 
61 1 0 3.206 -3.206 0 1.85182e-15 -1.40166e-15 -3.7323 
31 1 3.206 3.206 -6.412 1.55431e-15 1.47798e-15 -1.38778e-16 -3.7323 
32 1 4.809 4.809 -4.809 -2.02616e-15 -2.23432e-15 2.49106e-15 -3.7323 
63 1 3.206 3.206 -3.206 1.80411e-15 1.7833e-15 -1.5001e-15 -3.7323 
34 1 -4.809 -4.809 -1.603 1.55431e-15 1.70003e-15 -1.41206e-15 -3.7323 
65 1 -6.412 -6.412 0 -5.55112e-17 -8.32667e-17 0 -3.7323 
66 1 -4.809 -4.809 1.603 1.77636e-15 1.79717e-15 1.56125e-15 -3.7323 
67 1 -3.206 -6.412 0 2.56739e-16 -5.55112e-17 1.04083e-16 -3.7323 
73 1 -6.412 -3.206 0 -2.83107e-15 1.88738e-15 7.97973e-17 -3.7323 
75 1 -3.206 -3.206 0 -1.49533e-15 -1.29324e-15 3.98986e-17 -3.7323 
36 1 -1.603 -4.809 -1.603 -1.60852e-15 8.88178e-16 -1.63628e-15 -3.7323 
38 1 1.603 -4.809 -1.603 1.56819e-15 7.76289e-16 -1.58554e-15 -3.7323 
68 1 -1.603 -4.809 1.603 -1.7035e-15 8.88178e-16 1.58901e-15 -3.7323 
69 1 0 -6.412 0 -1.19696e-16 -8.32667e-17 1.17961e-16 -3.7323 
70 1 1.603 -4.809 1.603 1.6688e-15 8.88178e-16 1.70003e-15 -3.7323 
77 1 0 -3.206 0 -6.93889e-18 -1.38778e-15 0 -3.7323 
40 1 4.809 -4.809 -1.603 4.44089e-16 2.08861e-15 -4.44089e-15 -3.7323 
71 1 3.206 -6.412 0 1.38778e-17 -4.85723e-17 1.17961e-16 -3.7323 
72 1 4.809 -4.809 1.603 -1.84575e-15 1.66533e-15 1.61156e-15 -3.7323 
79 1 3.206 -3.206 0 1.82493e-15 -1.47105e-15 -2.08167e-17 -3.7323 
42 1 -4.809 -1.603 -1.603 2.66454e-15 -1.55648e-15 -1.71261e-15 -3.7323 
50 1 -4.809 1.603 -1.603 2.77556e-15 1.58207e-15 -1.63411e-15 -3.7323 
74 1 -4.809 -1.603 1.603 2.77556e-15 -1.68789e-15 1.57513e-15 -3.7323 
81 1 -6.412 0 0 -1.11022e-16 5.55112e-17 6.93889e-18 -3.7323 
82 1 -4.809 1.603 1.603 2.77556e-15 1.66533e-15 1.56819e-15 -3.7323 
83 1 -3.206 0 0 -1.249e-15 4.85723e-17 -1.38778e-17 -3.7323 
44 1 -1.603 -1.603 -1.603 -1.6185e-15 -1.66707e-15 -1.65666e-15 -3.7323 
46 1 1.603 -1.603 -1.603 1.46411e-15 -1.68268e-15 -1.67227e-15 -3.7323 
52 1 -1.603 1.603 -1.603 -1.56299e-15 1.47798e-15 -1.46758e-15 -3.7323 
54 1 1.603 1.603 -1.603 1.5838e-15 1.42247e-15 -1.60982e-15 -3.7323 
76 1 -1.603 -1.603 1.603 -1.6185e-15 -1.66707e-15 1.6185e-15 -3.7323 
78 1 1.603 -1.603 1.603 1.59248e-15 -1.68268e-15 1.54737e-15 -3.7323 
84 1 -1.603 1.603 1.603 -1.67401e-15 1.55258e-15 1.56299e-15 -3.7323 
85 1 0 0 0 -1.73472e-16 -1.11022e-16 -1.66533e-16 -3.7323 
86 1 1.603 1.603 1.603 1.54564e-15 1.6636e-15 1.67401e-15 -3.7323 
48 1 4.809 -1.603 -1.603 1.66533e-15 -3.2474e-15 -3.35842e-15 -3.7323 
56 1 4.809 1.603 -1.603 2.22045e-16 1.57947e-15 -4.94049e-15 -3.7323 
80 1 4.809 -1.603 1.603 -1.27676e-15 -3.19189e-15 -5.55112e-17 -3.7323 
87 1 3.206 0 0 1.72085e-15 -1.31839e-16 -1.80411e-16 -3.7323 
88 1 4.809 1.603 1.603 -2.82413e-15 1.75641e-15 1.56125e-15 -3.7323 
58 1 -4.809 4.809 -1.603 1.77636e-15 -2.77556e-17 -4.06142e-15 -3.7323 
89 1 -6.412 3.206 0 -3.33067e-16 1.79717e-15 2.28983e-16 -3.7323 
90 1 -4.809 4.809 1.603 1.88738e-15 -1.98452e-15 1.6584e-15 -3.7323 
91 1 -3.206 3.206 0 -1.3739e-15 1.72692e-15 -6.93889e-17 -3.7323 
60 1 -1.603 4.809 -1.603 -1.60549e-15 9.99201e-16 -4.10783e-15 -3.7323 
62 1 1.603 4.809 -1.603 1.55084e-15 8.41341e-16 -4.20323e-15 -3.7323 
92 1 -1.603 4.809 1.603 -1.6584e-15 -1.05558e-15 1.62544e-15 -3.7323 
93 1 0 3.206 0 -6.245e-17 1.74166e-15 -1.80411e-16 -3.7323 
94 1 1.603 4.809 1.603 1.61676e-15 -1.05558e-15 1.62544e-15 -3.7323 
64 1 4.809 4.809 -1.603 6.66134e-16 -2.77556e-16 -6.93889e-15 -3.7323 
95 1 3.206 3.206 0 1.81799e-15 1.80411e-15 -2.08167e-16 -3.7323 
96 1 4.809 4.809 1.603 -2.04003e-15 -1.92207e-15 1.69309e-15 -3.7323 
97 1 -6.412 -6.412 3.206 -5.55112e-17 -5.55112e-17 1.73472e-15 -3.7323 
98 1 -4.809 -4.809 4.809 1.9984e-15 2.01922e-15 -2.7825e-15 -3.7323 
99 1 -3.206 -6.412 3.206 2.01228e-16 -5.55112e-17 1.73733e-15 -3.7323 
105 1 -6.412 -3.206 3.206 -1.46411e-15 1.94289e-16 3.33067e-15 -3.7323 
107 1 -3.206 -3.206 3.206 -1.49186e-15 -1.31232e-15 1.90863e-15 -3.7323 
100 1 -1.603 -4.809 4.809 -1.61676e-15 1.33227e-15 -2.7478e-15 -3.7323 
101 1 0 -6.412 3.206 -1.73472e-18 -1.38778e-16 1.67921e-15 -3.7323 
102 1 1.603 -4.809 4.809 1.70003e-15 1.33227e-15 -2.96985e-15 -3.7323 
109 1 0 -3.206 3.206 0 -1.65146e-15 1.76855e-15 -3.7323 
103 1 3.206 -6.412 3.206 2.77556e-17 1.31839e-16 1.51962e-15 -3.7323 
104 1 4.809 -4.809 4.809 -2.05391e-15 1.77636e-15 -3.04617e-15 -3.7323 
111 1 3.206 -3.206 3.206 1.77636e-15 -1.51225e-15 1.7486e-15 -3.7323 
106 1 -4.809 -1.603 4.809 2.77556e-15 -1.54737e-15 -2.8727e-15 -3.7323 
113 1 -6.412 0 3.206 -5.55112e-17 1.11022e-16 1.55431e-15 -3.7323 
114 1 -4.809 1.603 4.809 2.77556e-15 1.58207e-15 -2.99066e-15 -3.7323 
115 1 -3.206 0 3.206 -1.4988e-15 0 1.76161e-15 -3.7323 
108 1 -1.603 -1.603 4.809 -1.54737e-15 -1.70697e-15 -2.79204e-15 -3.7323 
110 1 1.603 -1.603 4.809 1.60809e-15 -1.61156e-15 -2.75127e-15 -3.7323 
116 1 -1.603 1.603 4.809 -1.6584e-15 1.67921e-15 -2.73653e-15 -3.7323 
117 1 0 0 3.206 -6.245e-17 -1.11022e-16 1.55431e-15 -3.7323 
118 1 1.603 1.603 4.809 1.67227e-15 1.56819e-15 -2.84755e-15 -3.7323 
112 1 4.809 -1.603 4.809 -1.33227e-15 -3.10862e-15 -4.4964e-15 -3.7323 
119 1 3.206 0 3.206 1.59595e-15 -2.08167e-17 1.54043e-15 -3.7323 
120 1 4.809 1.603 4.809 -3.05311e-15 1.661e-15 -2.89352e-15 -3.7323 
121 1 -6.412 3.206 3.206 -2.22045e-16 1.58901e-15 1.58901e-15 -3.7323 
122 1 -4.809 4.809 4.809 1.9984e-15 -2.08861e-15 -3.01148e-15 -3.7323 
123 1 -3.206 3.206 3.206 -1.48492e-15 1.62977e-15 1.65059e-15 -3.7323 
124 1 -1.603 4.809 4.809 -1.64278e-15 -1.17267e-15 -2.66454e-15 -3.7323 
125 1 0 3.206 3.206 4.85723e-17 1.63064e-15 1.65146e-15 -3.7323 
126 1 1.603 4.809 4.809 1.63237e-15 -1.25594e-15 -2.9976e-15 -3.7323 
127 1 3.206 3.206 3.206 1.63758e-15 1.58901e-15 1.60982e-15 -3.7323 
128 1 4.809 4.809 4.809 -2.05391e-15 -2.0331e-15 -3.09128e-15 -3.7323 
ITEM: TIMESTEP
1000
ITEM: NUMBER OF ATOMS
128
ITEM: BOX BOUNDS pp pp pp
-6.1381993644449180e+00 6.1381993644449180e+00
-6.1381993644449180e+00 6.1381993644449180e+00
-6.1381993644449180e+00 6.1381993644449180e+00
ITEM: ATOMS id type x y z fx fy fz c_peratom 
1 1 -6.13203 -6.13222 6.04686 -0.154498 -0.0966539 0.711662 -3.71603 
2 1 -4.62654 -4.6781 -4.52084 0.448555 1.38212 -0.88317 -3.59974 
3 1 -3.20183 6.11087 -6.11158 1.91984 0.102326 -0.122228 -3.62929 
9 1 -6.05347 -3.09212 6.08857 -0.169179 0.375027 0.89293 -3.60973 
11 1 -2.96801 -3.07778 -6.00136 -1.60033 -0.0846748 -1.14389 -3.71756 
33 1 -6.19351 -6.19329 -3.10878 0.734113 0.852716 0.868722 -3.57061 
35 1 -3.0083 6.07471 -3.0887 -1.2376 0.67182 0.549627 -3.53156 
41 1 -6.1164 -2.95146 -3.06662 -0.0134188 -1.60554 -0.0726207 -3.54624 
43 1 -3.05382 -3.042 -3.11311 -0.133307 -0.434193 0.698798 -3.67451 
4 1 -1.45989 -4.71612 -4.54614 -0.998296 1.10201 -0.755541 -3.59204 
5 1 -0.0356552 6.13542 -6.19267 -0.535609 -0.373487 0.748202 -3.49792 
6 1 1.51002 -4.61765 -4.65843 0.964066 0.0319276 0.400608 -3.61998 
13 1 -0.0228814 -3.05317 6.11138 0.364621 -0.229424 0.17169 -3.67525 
37 1 0.0720939 6.04382 -3.06259 -0.0415295 1.08875 -0.29978 -3.56949 
45 1 0.0917654 -3.08563 -3.15514 -0.903123 0.00128885 0.729411 -3.57866 
7 1 3.09885 -6.07011 6.14236 0.207441 -0.244542 -0.439591 -3.61144 
8 1 4.69264 -4.49908 -4.63148 -1.04828 -1.46159 0.346263 -3.61354 
15 1 3.12374 -3.11396 6.04781 -1.06803 0.617438 0.698748 -3.5646 
39 1 3.12278 -6.18939 -3.07637 -0.43396 0.829876 -0.351342 -3.81429 
47 1 3.05513 -3.13984 -3.03306 0.236473 0.571296 -1.40343 -3.57979 
10 1 -4.63087 -1.43305 -4.58984 0.434576 -1.26463 0.206566 -3.59901 
17 1 6.11842 -0.03151 -6.14209 -0.443749 0.821443 0.314228 -3.57282 
18 1 -4.67272 1.51348 -4.57204 0.420158 0.493838 -0.387308 -3.65538 
19 1 -3.10626 0.0289921 -6.16064 0.826452 -0.148084 1.32309 -3.60001 
49 1 6.03251 0.0463109 -3.03179 0.676339 -0.625681 -0.164 -3.69958 
51 1 -3.05987 0.0409974 -2.99234 0.0110188 -0.34583 -1.35331 -3.53176 
12 1 -1.48578 -1.52094 -4.53603 -0.382181 0.395059 -1.11055 -3.60417 
14 1 1.56268 -1.49179 -4.72811 0.33262 -0.61526 1.24426 -3.63484 
20 1 -1.45582 1.53492 -4.60096 -0.869572 -0.277271 0.23515 -3.74383 
21 1 0.0375858 -0.0490806 -6.30617 -0.498935 1.0051 2.38461 -3.53623 
22 1 1.5183 1.59044 -4.5303 0.169611 -0.957179 -1.3421 -3.7632 
53 1 0.0950674 -0.0600596 -3.0688 -0.309352 0.979818 -0.443465 -3.47272 
16 1 4.52114 -1.57009 -4.67547 0.816288 0.683776 0.800449 -3.72621 
23 1 3.01781 0.0585833 6.02886 0.730422 -0.632636 1.10147 -3.5909 
24 1 4.53233 1.53411 -4.60733 0.34105 -0.0725732 0.308306 -3.65014 
55 1 3.10578 -0.0588245 -2.97342 -0.240447 0.93295 -1.48429 -3.6545 
25 1 -6.26027 3.04997 -6.21143 1.77293 0.372528 1.09857 -3.49007 
26 1 -4.68091 4.63194 -4.58064 0.785493 -1.06726 -0.370389 -3.58072 
27 1 -3.1267 3.02539 -6.06455 0.194943 0.376895 -0.23039 -3.67943 
57 1 6.12429 3.1022 -3.04259 -0.335817 -0.381264 -0.330295 -3.63968 
59 1 -3.12935 3.0278 -3.01072 1.09358 0.41951 -0.907841 -3.68668 
28 1 -1.51988 4.60369 -4.54368 -0.594027 -0.485714 -1.18023 -3.56754 
29 1 -0.0881051 3.08825 -6.11674 1.14072 -0.442072 -0.371821 -3.59689 
30 1 1.60038 4.59274 -4.74489 -0.658098 0.210306 1.88982 -3.52482 
61 1 0.036272 3.20611 -2.99634 -0.0199883 -1.90609 -0.750387 -3.54743 
31 1 3.08144 3.05661 6.09246 -0.648407 -0.00733415 0.500194 -3.5474 
32 1 4.63146 4.58856 -4.68581 -0.497159 0.315719 1.05248 -3.56493 
63 1 3.00687 3.12498 -3.02692 1.20481 -0.545729 -0.450131 -3.66064 
34 1 -4.63327 -4.61298 -1.53426 0.500818 0.0439622 -0.225851 -3.78212 
65 1 -6.17094 -6.25399 -0.0324131 0.595985 1.6455 0.601405 -3.58825 
66 1 -4.62509 -4.67572 1.50328 0.623934 1.35905 0.14716 -3.64971 
67 1 -3.01751 -6.12568 -0.0394808 -0.74894 0.134236 0.434521 -3.56361 
73 1 -6.13865 -3.13657 0.0336686 0.582928 1.05626 -0.221621 -3.62016 
75 1 -3.07114 -2.98951 0.00234348 -0.163958 -1.10081 -0.198774 -3.69918 
36 1 -1.54785 -4.59734 -1.59254 -0.0661681 0.267319 0.242841 -3.65462 
38 1 1.48021 -4.60802 -1.55347 0.765354 -0.287556 -0.112476 -3.60585 
68 1 -1.52393 -4.54742 1.54651 -0.87035 -0.712775 -0.39394 -3.50741 
69 1 -0.0615519 -6.05368 0.0128471 0.445663 -1.43121 0.0227596 -3.49208 
70 1 1.44962 -4.61928 1.51755 0.713412 0.220483 0.403172 -3.60235 
77 1 -0.0634476 -3.12594 -0.035136 0.568006 1.19747 0.0229023 -3.5175 
40 1 4.58598 -4.58423 -1.50508 0.688525 -0.58679 -0.715731 -3.6055 
71 1 3.08153 -6.07614 -0.020928 -0.086666 -0.231362 0.521057 -3.55901 
72 1 4.6158 -4.60627 1.58585 -0.190496 -0.413751 -0.627644 -3.62512 
79 1 3.05915 -3.10372 0.0320746 -0.148457 0.0343974 0.0266265 -3.57353 
42 1 -4.55795 -1.49444 -1.52008 -0.832379 -0.455274 0.128341 -3.64239 
50 1 -4.62654 1.51684 -1.5565 0.114731 -0.054032 0.841339 -3.58586 
74 1 -4.57139 -1.44747 1.5757 -0.613318 -1.42669 -0.657445 -3.56991 
81 1 -6.20829 0.00544661 0.0185282 1.01883 -0.418436 0.137184 -3.65709 
82 1 -4.57128 1.50863 1.57279 -0.63364 0.0175812 -0.702901 -3.57416 
83 1 -3.02589 0.00265143 0.0185828 -0.369418 0.0640614 -0.200747 -3.63673 
44 1 -1.45244 -1.49829 -1.60783 -0.612472 -0.649084 0.951677 -3.67037 
46 1 1.60461 -1.64792 -1.4968 -0.919212 1.30648 -0.595244 -3.55411 
52 1 -1.45684 1.49053 -1.59466 -0.570718 0.69957 0.698557 -3.55697 
54 1 1.6032 1.52326 -1.535 -0.369329 0.381434 0.343237 -3.58468 
76 1 -1.50777 -1.5196 1.51546 -0.477219 0.276567 0.0791829 -3.63448 
78 1 1.46671 -1.52517 1.49109 0.89604 -0.137439 0.150016 -3.7079 
84 1 -1.57464 1.52144 1.60179 0.918413 -0.122825 -0.743768 -3.60647 
85 1 0.0585558 0.0787011 -0.0204994 -0.315899 -1.25991 0.292005 -3.62626 
86 1 1.58061 1.56243 1.58849 -0.519397 -0.304749 -0.708511 -3.66359 
48 1 4.59856 -1.67089 -1.52655 0.479385 1.6058 0.174465 -3.446 
56 1 4.66341 1.63166 -1.39542 -0.711764 -1.00468 -1.72212 -3.46926 
80 1 4.57527 -1.63662 1.5908 0.384974 1.27597 -0.763357 -3.51743 
87 1 3.14171 -0.0242561 -0.0525763 -0.735591 0.211233 1.11668 -3.70802 
88 1 4.58114 1.58101 1.56273 0.416109 -0.733069 -0.315055 -3.63192 
58 1 -4.53153 4.56042 -1.45436 -0.759074 0.921153 -1.21653 -3.5117 
89 1 6.22146 3.169 0.0885472 -0.56387 -1.48184 -0.731132 -3.56248 
90 1 -4.54084 4.61387 1.58232 -0.0735831 0.212546 -0.640541 -3.54736 
91 1 -3.09768 2.99031 -0.0241738 0.871357 0.561026 0.178222 -3.60796 
60 1 -1.47259 4.62028 -1.54183 -0.748903 -0.642566 0.602828 -3.58086 
62 1 1.59386 4.67414 -1.37915 -0.720072 -0.912648 -1.45632 -3.45464 
92 1 -1.60195 4.54225 1.45677 0.744212 0.78038 1.00668 -3.6515 
93 1 -0.0327532 2.97416 0.0393701 0.825747 1.45023 -0.211586 -3.62225 
94 1 1.51392 4.68095 1.51165 -0.441393 -1.02327 0.626877 -3.6794 
64 1 4.62673 4.57867 -1.46021 -0.190423 0.439395 -1.2726 -3.4333 
95 1 3.13347 3.12991 0.00732192 -1.26571 -0.828035 0.386283 -3.42147 
96 1 4.52736 4.57515 1.58576 0.867264 0.84525 -0.290309 -3.5199 
97 1 6.17197 6.10262 3.05036 -0.567979 0.483171 0.135528 -3.61509 
98 1 -4.56114 -4.62481 4.55762 -0.209277 0.679079 0.850824 -3.53844 
99 1 -3.02218 6.24268 3.06814 -0.409451 -1.57389 -0.263814 -3.48346 
105 1 -6.12093 -3.03873 3.05436 0.483939 -0.398349 0.108692 -3.59222 
107 1 -3.05544 -3.01915 3.13242 -0.647879 -0.457987 -0.874283 -3.63996 
100 1 -1.58967 -4.60622 4.61501 0.194059 -0.239957 0.489136 -3.55588 
101 1 -0.0898106 6.08476 3.11337 0.505644 0.408946 -0.785496 -3.68841 
102 1 1.40313 -4.6293 4.61014 1.63165 0.427982 -0.436065 -3.56485 
109 1 -0.07373 -3.06865 3.05214 0.53693 -0.17204 0.164909 -3.57077 
103 1 3.03361 -6.1096 3.02909 0.16131 0.056103 0.851477 -3.62081 
104 1 4.66598 -4.52034 4.54609 -0.88338 -1.37821 0.289629 -3.50979 
111 1 3.00414 -3.10733 3.06494 0.556616 0.21556 -0.0857455 -3.60801 
106 1 -4.5783 -1.47496 4.67456 -0.257036 -1.1821 -0.480954 -3.52725 
113 1 -6.16299 -0.00304446 3.0841 0.183737 -0.00728453 -0.487134 -3.60545 
114 1 -4.6758 1.58154 4.59525 0.611889 -0.432982 0.555325 -3.61394 
115 1 -3.13611 -0.00924057 3.15861 0.955976 -0.0170234 -1.09138 -3.52205 
108 1 -1.5751 -1.52655 4.62841 0.357314 -0.184188 -0.0349472 -3.50211 
110 1 1.54375 -1.57105 4.46333 0.0740406 0.225525 1.34978 -3.51495 
116 1 -1.56359 1.5132 4.59385 0.259587 0.316157 0.481121 -3.6287 
117 1 -0.0186206 -0.050256 3.0747 0.275376 1.03051 -0.494738 -3.55987 
118 1 1.5319 1.53573 4.56814 -0.139234 0.428629 0.368692 -3.52999 
112 1 4.6629 -1.51808 4.62059 -0.955593 -0.172881 -0.442226 -3.60837 
119 1 3.13239 -0.0335068 3.024 -0.967841 0.374489 0.145497 -3.60576 
120 1 4.66118 1.60036 4.49082 -1.05969 -0.966745 1.10779 -3.54724 
121 1 -6.07416 3.12043 2.96208 -0.999955 -0.405258 1.14278 -3.46999 
122 1 -4.52789 4.5492 4.54194 -1.28626 0.639107 0.980545 -3.60191 
123 1 -3.08408 3.00393 3.08695 0.315353 0.723174 -0.306881 -3.35671 
124 1 -1.64977 4.50313 4.56032 1.01932 1.38804 1.02227 -3.5259 
125 1 0.00178326 3.12084 3.11379 -0.0759853 -0.597536 -0.491571 -3.69328 
126 1 1.54871 4.70133 4.70691 -0.608612 -1.3302 -1.7264 -3.5362 
127 1 3.02194 3.1067 3.08563 0.100167 -0.0889761 -0.136521 -3.51465 
128 1 4.56713 4.57377 4.5812 0.550771 1.09176 -0.245412 -3.59424 
ITEM: TIMESTEP
2000
ITEM: NUMBER OF ATOMS
128
ITEM: BOX BOUNDS pp pp pp
-5.8186556343552285e+00 5.8186556343552285e+00
-5.8186556343552285e+00 5.8186556343552285e+00
-5.8186556343552285e+00 5.8186556343552285e+00
ITEM: ATOMS id type x y z fx fy fz c_peratom 
2 1 -4.37246 -4.36477 -4.40448 -0.500332 -1.47156 2.07184 -2.5508 
11 1 -2.96283 -2.92086 -5.74466 1.06615 0.861857 -1.70783 -2.73187 
43 1 -2.97101 -2.92585 -2.90469 -0.0191898 -0.651573 0.695487 -2.70749 
3 1 -2.88353 -5.78311 -5.7433 0.337115 -0.922325 -1.23148 -2.65885 
35 1 -2.80048 -5.76639 -2.95645 -2.14725 -0.298428 1.08251 -2.80304 
9 1 -5.78549 -2.94809 -5.76511 -0.0715853 1.0644 -1.81001 -2.67521 
4 1 -1.44487 -4.34075 -4.37861 0.7528 0.948531 0.131681 -2.45236 
6 1 1.39332 -4.34293 -4.36763 -0.144663 0.08362 1.20778 -2.56849 
45 1 -0.0761374 -2.87306 -2.89121 1.42394 -0.762798 -0.527396 -2.6445 
13 1 0.00350698 -2.88872 -5.76224 -0.711621 0.746705 -0.313457 -2.64251 
41 1 5.77063 -2.90663 -2.92383 0.71406 0.322102 -0.0936231 -2.69622 
8 1 4.44624 -4.39331 -4.38166 -1.29394 -0.105323 -0.314536 -2.43618 
47 1 2.95068 -2.9334 -2.95461 -0.348527 -0.349902 0.366172 -2.7934 
33 1 5.71734 -5.72912 -2.83673 1.86441 -1.1886 -1.30675 -2.53036 
39 1 2.85177 -5.79304 -2.94423 0.490835 0.788956 -0.287999 -2.68613 
7 1 2.85557 -5.67714 -5.81658 0.609996 -1.34321 -0.137069 -2.70069 
15 1 2.94599 -3.0034 -5.81603 -0.197029 0.997249 -0.639794 -2.95504 
10 1 -4.33851 -1.44861 -4.32968 -0.680084 1.18071 0.0388618 -2.79504 
18 1 -4.30913 1.44671 -4.42105 -0.662992 -0.582911 0.477963 -2.76757 
51 1 -2.85434 0.0317152 -2.92018 -0.769232 0.389558 1.25625 -2.593 
49 1 -5.81575 -0.0262693 -2.81838 0.269688 -0.0880979 -1.07876 -2.79652 
12 1 -1.52758 -1.42738 -4.29293 0.266152 -1.01042 -1.87098 -2.55212 
14 1 1.48662 -1.45309 -4.32687 0.107334 -0.19698 -0.301481 -2.77788 
20 1 -1.37621 1.44463 -4.3126 0.274693 0.0662744 -0.226313 -2.3808 
22 1 1.54381 1.33278 -4.38138 -1.83941 -0.114052 3.03224 -2.40431 
53 1 -0.0391318 -0.0716993 -2.88954 0.492344 0.151814 0.510633 -2.60499 
21 1 0.000514572 0.00926379 -5.75497 -0.209709 -1.00412 -0.399005 -2.66915 
16 1 4.36982 -1.46016 -4.39566 -0.245252 0.281254 -0.138743 -2.77255 
24 1 4.29931 1.34186 -4.32636 1.13433 0.055006 -0.370437 -2.69048 
55 1 2.94192 -0.0781191 -2.81881 0.293747 -0.6961 -0.143884 -2.52103 
26 1 -4.36488 4.37416 -4.42058 -0.279384 0.543014 1.43635 -2.87117 
27 1 -2.83993 2.91768 -5.81395 0.198623 0.220604 0.278905 -2.67964 
59 1 -2.85289 2.91509 -3.05063 -1.09239 0.523182 1.62494 -2.72102 
37 1 -0.0356683 5.7954 -2.91709 0.309193 2.58494 -0.88721 -2.45971 
28 1 -1.3727 4.3795 -4.33072 -0.459056 -0.868441 -1.52179 -2.40702 
29 1 0.0949128 2.83923 -5.70793 -0.854177 0.746285 -1.08267 -2.65669 
30 1 1.50635 4.33231 -4.40214 -0.258818 1.53456 0.181996 -2.54846 
61 1 0.0321609 2.91793 -2.91766 1.25174 -0.422633 0.0374053 -2.60242 
5 1 -0.0287932 5.80774 -5.79536 0.0876186 -0.148857 -0.00935486 -2.54485 
57 1 5.76769 2.8586 -2.92149 1.19464 0.364494 -0.438552 -2.85689 
32 1 4.33412 4.33541 -4.36484 0.00416638 1.24531 -0.927767 -2.8216 
63 1 2.91363 2.89984 -3.0047 -0.879332 -0.517475 1.87516 -2.67951 
25 1 5.77698 2.89921 -5.74715 -0.559122 -0.292867 -0.333372 -2.64184 
31 1 2.82003 2.79222 -5.79221 1.37367 1.83772 -1.42717 -2.61365 
34 1 -4.4838 -4.35112 -1.43875 2.03138 -0.740874 -0.722959 -2.6139 
66 1 -4.35057 -4.42994 1.48211 0.322402 0.332754 -0.141428 -2.55016 
73 1 -5.80085 -2.93392 -0.0305703 0.0798404 1.12064 1.70302 -2.59184 
75 1 -2.98753 -2.91487 0.0173029 0.200401 -0.389655 0.0434634 -2.68506 
36 1 -1.44351 -4.33235 -1.42443 -0.616169 -0.0368398 0.137517 -2.73002 
38 1 1.44665 -4.34389 -1.44375 0.61088 0.512519 -1.01241 -2.73893 
68 1 -1.45068 -4.32968 1.42074 -0.181314 0.118307 -0.531045 -2.68809 
69 1 0.018455 -5.78922 -0.0433037 -0.962643 -0.179275 1.17746 -2.67152 
70 1 1.49974 -4.37355 1.48552 -0.287366 0.119291 0.280633 -2.52468 
77 1 0.0753384 -2.91876 0.0116737 -0.540385 0.636165 1.00624 -2.68572 
40 1 4.29684 -4.35416 -1.37893 -0.238913 0.0928508 -0.733662 -2.54759 
71 1 2.89308 -5.77813 0.0542987 -0.186534 -0.700666 -0.887922 -2.61811 
72 1 4.42821 -4.3768 1.46434 -1.77906 -0.215785 -0.320441 -2.36292 
79 1 2.94167 -2.93013 0.0715292 -0.660354 0.49876 0.185076 -2.5699 
65 1 5.76101 -5.79207 0.0387679 0.414233 -1.50407 -0.150419 -2.69285 
42 1 -4.32674 -1.43506 -1.42864 -0.0985394 -0.193796 -0.457351 -2.66462 
50 1 -4.27516 1.43698 -1.46201 -0.59762 1.28019 -0.749835 -2.71578 
74 1 -4.33853 -1.33268 1.437 -1.09126 -1.35993 1.29214 -2.74213 
82 1 -4.39086 1.43013 1.47484 2.26852 1.28667 -1.01417 -2.36538 
83 1 -2.9297 0.029546 0.0155737 1.03134 -0.00608134 -1.53165 -2.41933 
81 1 -5.75586 0.0778857 -0.0146 -1.75502 -0.382517 -0.4384 -2.70698 
44 1 -1.45301 -1.51613 -1.43542 -1.00516 0.936606 1.32438 -2.73486 
46 1 1.46518 -1.46206 -1.38967 0.278212 -0.147192 0.00587356 -2.813 
52 1 -1.40311 1.53795 -1.4404 -1.09755 -1.41563 -1.11819 -2.64345 
54 1 1.43783 1.36438 -1.52681 0.230366 0.640473 -0.0198885 -2.70261 
76 1 -1.5189 -1.42913 1.41854 0.573386 -0.940968 0.0276366 -2.71948 
78 1 1.54304 -1.40844 1.5126 -1.47667 -1.04401 -0.339253 -2.7068 
84 1 -1.53193 1.42498 1.43565 1.9286 0.475966 0.0995117 -2.39205 
85 1 -0.0455875 0.0455889 0.063567 0.334351 -0.998433 -0.733997 -2.74601 
86 1 1.52386 1.36388 1.45413 -1.20079 1.16843 1.22227 -2.67288 
48 1 4.39923 -1.54174 -1.41614 -0.483019 0.846197 0.493812 -2.64791 
56 1 4.36884 1.46305 -1.48045 -0.649605 0.421103 1.50523 -2.7326 
80 1 4.34976 -1.46006 1.49022 1.61347 -0.66271 -0.917404 -2.64643 
87 1 2.93713 0.00428524 0.0563002 1.23017 -0.389198 -1.84376 -2.60147 
88 1 4.34153 1.47435 1.48159 -2.23476 0.659554 -2.86457 -2.43204 
67 1 -2.95193 5.80871 0.018626 1.1102 0.253547 -1.35215 -2.7434 
58 1 -4.40794 4.36895 -1.44908 0.601398 0.0505727 -0.98982 -3.03374 
90 1 -4.30148 4.37414 1.46018 -0.641235 -0.586128 0.789014 -2.63412 
91 1 -2.9019 2.87475 0.00851325 -0.931226 0.399956 -0.934348 -2.5616 
60 1 -1.44595 4.37005 -1.49917 -0.704975 -0.5357 1.16701 -2.79951 
62 1 1.37911 4.482 -1.53142 1.95836 -2.28651 1.13181 -2.57498 
92 1 -1.48992 4.27677 1.42037 0.655838 0.841713 -0.938038 -2.65865 
93 1 0.0468527 2.84621 -0.0532287 0.713101 1.0912 1.09412 -2.77612 
94 1 1.39785 4.36672 1.43602 0.440411 0.929418 -0.762411 -2.57745 
89 1 5.81246 2.98318 0.0467539 -0.0616457 -0.57383 -0.88311 -2.85535 
64 1 4.35309 4.41121 -1.53888 -1.36743 -1.08544 1.45657 -2.83189 
95 1 2.77936 2.91597 -0.0462182 0.36759 -0.0302578 -1.21982 -2.89033 
96 1 4.23461 4.30599 1.41316 1.01462 0.709434 -0.356493 -2.53545 
98 1 -4.34737 -4.41315 4.38125 0.306168 0.409082 -0.762295 -2.84158 
105 1 -5.81537 -2.98143 2.80722 1.51509 2.27861 1.69367 -2.72667 
107 1 -2.92068 -2.91199 2.88849 -0.281304 0.284046 0.54421 -2.8955 
100 1 -1.44648 -4.37786 4.34051 -0.366585 1.06129 0.592717 -2.83262 
102 1 1.31857 -4.36954 4.3548 1.08767 -0.000893203 -0.0285986 -2.67769 
109 1 0.0559343 -2.92183 2.86181 -1.2396 0.853845 -0.698407 -2.6705 
101 1 -0.0644677 -5.80123 2.84457 0.542327 -0.548922 -0.238802 -2.65231 
103 1 2.93762 -5.81134 2.87968 -0.423772 -0.00641367 0.427636 -2.63859 
104 1 4.41569 -4.42706 4.30956 -0.117344 1.03066 0.60429 -2.53059 
111 1 2.96335 -2.9585 2.98103 -0.546413 0.253476 0.193146 -2.84974 
19 1 -2.80033 0.101126 5.77914 -0.724283 -0.721462 -0.0353144 -2.75253 
106 1 -4.35376 -1.3408 4.38749 0.300527 -1.06485 -0.801475 -2.99893 
114 1 -4.46396 1.49608 4.37889 0.712974 0.506595 -0.386363 -2.84658 
115 1 -2.86756 0.0404136 2.93401 -0.700201 -0.198739 0.921514 -2.67341 
17 1 -5.81609 -0.00356865 5.80711 -0.225124 0.977201 1.20438 -2.57429 
108 1 -1.42951 -1.45601 4.37252 -0.688713 -0.956546 0.547263 -2.79121 
110 1 1.37314 -1.45211 4.3599 1.26346 0.0521459 0.345801 -2.83022 
116 1 -1.405 1.54051 4.38617 1.2395 -0.115327 -0.144254 -2.53021 
117 1 -0.0813394 -0.0248045 2.92073 0.391567 0.513684 -0.845162 -2.65126 
118 1 1.35344 1.44242 4.32388 0.602896 -0.207997 -0.888625 -2.77172 
23 1 2.87615 0.0175597 5.78471 0.944859 -1.86545 -2.04419 -2.64506 
113 1 5.76178 0.138289 2.82506 0.530344 -3.1502 2.40013 -2.49346 
112 1 4.45578 -1.44438 4.39324 -0.539557 -0.806211 -0.485949 -2.83747 
119 1 2.98848 -0.0558641 2.90666 -0.469595 1.27181 2.44377 -2.58649 
120 1 4.33629 1.55661 4.3586 0.0550797 -0.430901 -0.0141305 -2.76414 
99 1 -2.82092 5.78702 2.89078 -0.987514 0.020175 0.299438 -2.68473 
97 1 -5.81784 5.7881 2.88219 0.72541 -1.72123 -0.100875 -2.70068 
122 1 -4.33738 4.29405 4.42901 0.0261361 -0.0109784 -1.32482 -2.99715 
123 1 -2.84692 2.81428 2.90486 -1.74131 1.21429 0.699433 -2.64664 
124 1 -1.44256 4.39732 4.36142 0.640864 -0.978626 0.781159 -2.78497 
125 1 0.0197183 2.97402 2.83494 -0.0657687 -1.27639 1.21086 -2.72122 
126 1 1.48751 4.4561 4.37553 -0.365365 -0.588763 0.00540223 -2.91857 
1 1 5.81306 5.79311 5.75232 0.152337 -0.333866 1.16673 -2.5512 
121 1 5.79825 2.89064 2.74559 0.621841 2.303 2.69625 -2.57682 
127 1 2.87671 2.9386 2.89875 -0.94573 -0.51797 0.893797 -2.66606 
128 1 4.3675 4.39147 4.3572 -0.684853 -1.04647 0.171099 -2.9164 
ITEM: TIMESTEP
3000
ITEM: NUMBER OF ATOMS
128
ITEM: BOX BOUNDS pp pp pp
-6.6941805622133828e+00 6.6941805622133828e+00
-6.6941805622133828e+00 6.6941805622133828e+00
-6.6941805622133828e+00 6.6941805622133828e+00
ITEM: ATOMS id type x y z fx fy fz c_peratom 
2 1 -5.01078 -5.06916 -5.10903 -0.151761 0.304834 0.489439 -3.35911 
11 1 -3.31567 -3.39194 6.60942 0.161346 0.695896 0.462942 -3.3472 
43 1 -3.34219 -3.46541 -3.38103 0.0468106 0.187989 0.497957 -3.24162 
3 1 -3.35696 -6.59212 -6.68126 0.0711042 -0.779175 -0.542119 -3.10482 
35 1 -3.37883 6.61095 -3.24891 0.247875 0.671004 -0.46001 -3.27679 
9 1 6.59766 -3.45921 -6.67659 0.439793 0.52783 0.38436 -3.24915 
4 1 -1.73779 -5.05528 -5.03494 0.657483 -0.517435 -0.0088387 -3.2255 
6 1 1.66787 -5.11483 -5.05974 -0.00181947 0.723935 -0.0164763 -3.24526 
45 1 -0.101266 -3.34474 -3.40857 0.535137 -0.159917 0.29756 -3.34549 
13 1 -0.0459356 -3.2912 -6.55475 0.103737 -0.45937 -0.982917 -3.33794 
41 1 6.59803 -3.4014 -3.39245 0.461951 0.574039 0.548744 -3.33692 
8 1 5.09857 -5.07929 -4.92025 -1.20057 0.0682598 -0.358296 -3.1775 
47 1 3.36817 -3.41615 -3.37246 0.273181 0.0829642 -0.266978 -3.30143 
33 1 -6.6385 -6.60311 -3.35223 -0.0749034 -0.888156 0.292852 -3.28626 
39 1 3.28221 -6.69073 -3.26199 0.379679 -0.0198532 -0.865021 -3.39653 
7 1 3.38118 -6.59486 -6.69348 -0.233771 -0.302947 -0.0570899 -3.34348 
15 1 3.35534 -3.41693 6.65793 -0.0395256 0.189646 0.364896 -3.38759 
10 1 -5.00467 -1.77163 -4.89295 -0.189337 0.194881 -0.74164 -3.30823 
18 1 -4.97319 1.60566 -4.91109 -0.208375 0.35658 -0.436902 -3.15379 
51 1 -3.17634 -0.0289451 -3.30749 -0.422721 0.365703 -0.13972 -3.22106 
49 1 -6.63398 0.0451726 -3.24311 -0.688892 -0.648454 -0.423844 -3.19601 
12 1 -1.70674 -1.68914 -4.94605 -0.221479 0.142428 -0.53161 -3.14789 
14 1 1.73627 -1.68496 -5.09705 0.102636 0.0684682 0.494669 -3.25375 
20 1 -1.55101 1.7616 -5.07275 -0.765954 -0.68016 0.387475 -3.23855 
22 1 1.68244 1.73264 -4.89152 -0.181083 -0.590168 -0.671923 -3.31436 
53 1 0.0659927 -0.0789653 -3.31876 -0.110106 0.0955261 -0.0694144 -3.33668 
21 1 -0.013779 -0.020758 -6.66684 0.036995 0.399418 0.117842 -3.16561 
16 1 5.01252 -1.59598 -5.12764 -0.0409872 -0.655218 0.487879 -3.24667 
24 1 5.04663 1.60416 -4.94668 -0.204465 0.478523 -0.178794 -3.24493 
55 1 3.42107 -0.13105 -3.35541 -0.418464 0.472535 0.23829 -3.20837 
26 1 -5.01544 5.03071 -5.01908 0.135666 0.156205 -0.0242267 -3.24354 
27 1 -3.38216 3.32032 6.61707 0.0275815 -0.458246 0.860159 -3.28935 
59 1 -3.36338 3.27324 -3.35401 0.352658 0.783238 0.188038 -3.2454 
37 1 0.110281 6.67856 -3.41746 -0.840107 -0.121751 0.342884 -3.2943 
28 1 -1.62482 5.01937 -5.03271 -0.575141 0.338427 -0.134206 -3.31227 
29 1 -0.0702098 3.37811 6.66147 0.636989 -0.168976 -0.211379 -3.30233 
30 1 1.74772 4.95988 -5.165 -0.458028 0.36188 0.72729 -3.39684 