128
config_type=md_bulk energy=-1.431629494590219E+03 Lattice="1.272199597962937E+01  0.000000000000000E+00  0.000000000000000E+00  0.000000000000000E+00  1.272199597962937E+01  0.000000000000000E+00  0.000000000000000E+00  0.000000000000000E+00  1.272199597962937E+01" Properties=species:S:1:pos:R:3:force:R:3:Z:I:1
W          2.630432203233296E-02 -1.504028116204702E-02 2.768572213906314E-02 -4.742581516823975E-01 1.545525628125681E-01 -3.399087554563675E-01      74
W          1.601113573705750E+00 1.610194524407365E+00 1.579295172020010E+00 -8.176835560046875E-02 -5.619891083444177E-01 2.841808746431534E-01      74
W         -4.471978345515423E-02 1.010902078104640E-02 3.216386388505477E+00 8.678721272656701E-01 -1.356530281133341E-01 -6.339853675817252E-01      74
W          1.572465091492302E+00 1.574209031627043E+00 4.763255028020137E+00 4.204448797287964E-01 -8.534184041311881E-02 2.842474336667993E-01      74
W         -1.023358079067020E-02 2.471050190919072E-02 6.366440331885953E+00 1.355584908661086E-01 -5.032414915205821E-01 3.431864774427829E-02      74
W          1.602582373819233E+00 1.605698724060009E+00 7.982003056708078E+00 -5.357997148864592E-01 -2.814606658922232E-01 -5.623324198847306E-01      74
W         -4.403050340189886E-03 -4.553280351797005E-03 9.533919236612725E+00 -1.425062542764137E-01 1.842253882322423E-02 2.334773421786587E-01      74
W          1.592122393011070E+00 1.565779190975733E+00 1.112488435953438E+01 -2.136525987745682E-01 5.326885414818117E-01 1.397844444522849E-01      74
W          2.463105190305223E-02 3.193946466771715E+00 -6.510090502984698E-03 -5.218335700515389E-01 -8.356302500509570E-02 5.140424418941076E-02      74
W          1.597313063412114E+00 4.749303456942206E+00 1.590237182865415E+00 -7.039971626180293E-02 3.050789814645747E-01 1.986530350513300E-01      74
W          1.919100148274131E-02 3.165874684602824E+00 3.200409917271097E+00 -3.923532357261957E-01 3.507634966126746E-01 -3.295108063827525E-01      74
W          1.558415420406791E+00 4.750727887052260E+00 4.790807420148899E+00 7.145236774501632E-01 9.224421806832610E-02 -3.860460299077454E-01      74
W          1.692901130797470E-02 3.157756363975584E+00 6.340416179875267E+00 -3.650476525751525E-01 3.975202155704936E-01 5.428729206012782E-01      74
W          1.585291882483330E+00 4.776276269026188E+00 7.945606293895980E+00 7.996703094989245E-03 -9.324492667306360E-02 1.415691820093706E-01      74
W         -2.091782161615944E-02 3.180944925767186E+00 9.545508937508172E+00 1.728223950991207E-01 -1.116989302394533E-01 -1.114481003917758E-01      74
W          1.591418912956718E+00 4.802075951019531E+00 1.110836666825818E+01 9.600852523050896E-02 -5.753561450453488E-01 3.199220208723945E-01      74
W          3.463036267562218E-02 6.347452520418912E+00 2.015647155733577E-02 -3.377622380411629E-01 1.267497626336415E-01 -3.483690849234407E-01      74
W          1.594919533227184E+00 7.960731475064585E+00 1.567670401121853E+00 -8.205223236500643E-02 -3.945128764323645E-01 4.261668565314900E-01      74
W          1.660969128330329E-02 6.359114901319973E+00 3.186571066201875E+00 -2.792846206450803E-01 1.274461880712267E-01 1.245929042225254E-01      74
W          1.597209873404141E+00 7.930864312756979E+00 4.787811579917433E+00 -2.475762276023205E-01 3.191173698893179E-01 -4.106791236252806E-01      74
W          3.926560303375160E-02 6.345993520306185E+00 6.361205551481501E+00 -7.277702141398722E-01 2.210423563810670E-01 2.107932577888093E-01      74
W          1.585036462463595E+00 7.940395023493346E+00 7.952054934394218E+00 3.449129645867048E-01 1.573883524195171E-01 9.504227290347741E-02      74
W          1.231310095133875E-02 6.349964220612971E+00 9.562034828784999E+00 -5.253156009142036E-02 2.982368749271959E-01 -5.527326290284525E-01      74
W          1.628434675816642E+00 7.965270295415267E+00 1.109911199754315E+01 -5.315773262105122E-01 -1.928241645893787E-01 5.145816603382684E-01      74
W         -2.966000229160060E-05 9.519270635480938E+00 3.228181249416774E-02 1.125206244960320E-01 2.273904105038841E-01 -7.065218573441561E-01      74
W          1.599811983605186E+00 1.109148853695414E+01 1.587707652669978E+00 -3.105750514104177E-01 8.437888752183658E-01 2.091911771387310E-01      74
W          8.209580634291247E-03 9.551749257990313E+00 3.166314414636799E+00 -2.537853373232566E-01 -3.870434031734302E-01 4.089366872255230E-01      74
W          1.598647643515227E+00 1.110670839813007E+01 4.808385811507045E+00 -1.871337566457228E-01 4.868181937490947E-01 -6.043091638721607E-01      74
W         -1.461601112926694E-02 9.549622447825991E+00 6.343349560101907E+00 1.766794610667701E-01 6.142733862186271E-03 3.035539173415435E-01      74
W          1.600142933630756E+00 1.112676339967956E+01 7.932607132891635E+00 -3.214922689676557E-01 1.634715039337556E-03 3.754568533095987E-01      74
W          7.265350561337845E-03 9.546387047576017E+00 9.546716677601484E+00 -4.616481954780795E-02 -8.322019376081159E-02 -1.201733930454193E-01      74
W          1.597025663389908E+00 1.116209267240918E+01 1.112965239990277E+01 -8.198705919805489E-02 -7.071990948235648E-01 4.738800516650240E-03      74
W          3.160930244220806E+00 -1.496703115638756E-02 1.098151084845701E-02 4.276720380766945E-01 2.007517206302822E-01 -1.920106090029307E-01      74
W          4.770136688551829E+00 1.603777753911591E+00 1.604721333984494E+00 1.810592408704733E-01 -1.862384130026600E-01 -3.615080465897075E-01      74
W          3.183389085956028E+00 9.085190701942917E-03 3.177186065476768E+00 -3.556113536612188E-01 -3.189963520074388E-01 9.157857336239597E-02      74
W          4.769327138489282E+00 1.567781941130471E+00 4.791547200206055E+00 3.319871000602911E-02 4.702418144930529E-01 -2.311818750461187E-01      74
W          3.183533555967190E+00 -4.038960312059446E-03 6.391087393790244E+00 -9.174521528205301E-02 -3.632438486906238E-02 -5.096411261033341E-01      74
W          4.762592307968934E+00 1.613588474669590E+00 7.955776954681789E+00 3.503831042725385E-01 -1.363628786262111E-01 1.203428150330382E-01      74
W          3.139683702579248E+00 6.006180464051439E-03 9.515438905184888E+00 7.499053905948366E-01 -1.196069127238691E-01 6.142308611316837E-01      74
W          4.763647858050487E+00 1.564216490854996E+00 1.115593810193367E+01 9.902525133752550E-02 5.715328485735903E-01 -4.174933804628667E-01      74
W          3.150957883450317E+00 3.201110027325189E+00 -2.254760174208003E-03 6.832461135508284E-01 -4.483557018283622E-01 -1.720106402002602E-01      74
W          4.760181597782676E+00 4.773343938799629E+00 1.600046783623327E+00 -6.224089953024282E-02 -3.301141589477660E-01 -1.696080220995689E-01      74
W          3.197364667035814E+00 3.127551851641913E+00 3.181655765822108E+00 -3.245743607763072E-01 8.547109619341039E-01 1.721791331908800E-01      74
W          4.739536246187568E+00 4.802225401031077E+00 4.743135226465633E+00 3.326246505793360E-01 -8.568262665773787E-01 5.348704376761658E-01      74
W          3.166240564631093E+00 3.164630154506669E+00 6.384300383265862E+00 2.588129846166536E-01 2.622466396851914E-01 -5.789298945445193E-01      74
W          4.732252245624789E+00 4.770071328546780E+00 7.936262603174065E+00 7.040805833437911E-01 -3.986164781427719E-02 1.517224832787775E-02      74
W          3.152927353602484E+00 3.172734065132796E+00 9.522136355702351E+00 5.322970111771528E-01 1.109775117610959E-01 5.436503292549985E-01      74
W          4.784576419667477E+00 4.752191667165356E+00 1.111628512886998E+01 -2.079482011517526E-01 1.623423841759888E-01 2.349725411235955E-01      74
W          3.175271445328840E+00 6.345737000286365E+00 2.089990161477489E-03 1.966551935988244E-01 1.514462251672629E-01 -8.855404816294269E-03      74
W          4.751701277127467E+00 7.919498621878840E+00 1.634868166313708E+00 1.954123251732582E-01 5.718063791623493E-01 -8.393492639779890E-01      74
W          3.168877384834821E+00 6.347702210438203E+00 3.177417855494676E+00 -2.479136803194969E-01 2.727846111160708E-02 8.749009258253730E-02      74
W          4.735229785854841E+00 7.945593773895012E+00 4.748292626864107E+00 3.616300187879183E-01 2.412656910150181E-01 4.585098276440492E-01      74
W          3.199468507198362E+00 6.372596092361561E+00 6.357946451229696E+00 -3.520157440417889E-01 -3.150431343982073E-01 1.685698490654202E-01      74
W          4.822483102596235E+00 7.939855973451697E+00 7.946237733944766E+00 -5.982870283348665E-01 1.361757606806897E-01 7.521317541846054E-02      74
W          3.221176578875577E+00 6.343968420149721E+00 9.565827909078063E+00 -4.839193338138050E-01 2.560779389324365E-01 -5.929066872474889E-01      74
W          4.750574907040441E+00 7.938682563361037E+00 1.114273018091319E+01 7.567423895599741E-01 1.990464721837111E-03 7.533731618460705E-03      74
W          3.181343275797963E+00 9.530285436331967E+00 -5.596490432397838E-03 2.306275819701958E-01 1.387874540698952E-01 -2.261461675363487E-03      74
W          4.761612257893213E+00 1.112602456962247E+01 1.603198483866835E+00 1.167814290551990E-01 -1.155447881606401E-02 -4.945080498698266E-01      74
W          3.148720073277419E+00 9.558511258512761E+00 3.167033354692346E+00 3.767905501086208E-01 -4.672432713855202E-01 3.361808272732005E-01      74
W          4.755400067413244E+00 1.112677098968015E+01 4.719464294636762E+00 2.049671215003601E-01 6.601214138332689E-02 1.129603445251184E+00      74
W          3.175972625383015E+00 9.525873015991055E+00 6.378697762832990E+00 1.732966657641394E-01 1.818089103345554E-01 -2.184491262231137E-01      74
W          4.749499836957379E+00 1.113749998050909E+01 7.999187168035762E+00 5.905533931260285E-01 -4.179057668016720E-02 -1.039703484881395E+00      74
W          3.212573158210857E+00 9.519525545500635E+00 9.543412507346197E+00 -5.091051568605099E-01 2.622503907986457E-01 -1.157610584586153E-01      74
W          4.773935868845363E+00 1.113122852002455E+01 1.109655844734585E+01 -8.074907881514536E-02 4.365119021713964E-03 7.506730767902482E-01      74
W          6.340161649855602E+00 1.416604109450121E-02 -2.687700207657955E-03 2.611452396289705E-01 -2.161444144935017E-01 -1.412352237701147E-01      74
W          7.968450395660969E+00 1.576309311789315E+00 1.545477199407155E+00 -2.058931345070928E-01 2.147272419129375E-01 7.900609090897700E-01      74
W          6.359363711339197E+00 -8.635660667211180E-03 3.166395824643089E+00 1.903600911990213E-02 1.224205034949146E-01 9.765690904588943E-02      74
W          7.956997534776094E+00 1.557874750365018E+00 4.751703897127669E+00 -2.641272001666903E-01 6.383782512279360E-01 1.164483237708254E-01      74
W          6.342591180043312E+00 5.221455403421760E-02 6.361672631517590E+00 2.095187603285892E-01 -9.519107846147883E-01 5.312973016548005E-02      74
W          7.966045255475142E+00 1.604071783934308E+00 7.951520264352907E+00 -2.051924942540143E-01 -6.026276148975699E-02 -7.354680029911248E-02      74
W          6.379302912879746E+00 9.247490714482592E-03 9.537239986869293E+00 -2.436706378648016E-01 2.055807161041918E-01 6.454562248667239E-02      74
W          7.978745856456420E+00 1.617988095009515E+00 1.114130046080273E+01 -6.166001025346376E-01 -6.012387519458752E-01 -3.046796970095583E-01      74
W          6.388588203597150E+00 3.224929319165522E+00 -4.085460315652145E-03 -9.025396557023201E-01 -8.769896464572461E-01 -1.008101547987801E-02      74
W          7.913853771442706E+00 4.776882339073015E+00 1.564821960901776E+00 6.241731282926866E-01 1.327816191893413E-01 7.201075083275296E-01      74
W          6.368398702037260E+00 3.175054725312096E+00 3.180326505719405E+00 -9.658761778869449E-02 5.854591035208180E-02 -8.925824503865682E-04      74
W          7.978587816444208E+00 4.802334411039500E+00 4.769510938503482E+00 -6.844013103154282E-01 -4.553235289210571E-01 -1.413469221711950E-01      74
W          6.382237953106514E+00 3.207935017852503E+00 6.343591920120631E+00 -4.656555527146511E-01 -2.428133416891540E-01 5.822226007754692E-02      74
W          7.951220944329781E+00 4.759949027764708E+00 7.947503584042568E+00 5.440982253794814E-02 4.199932603686923E-01 -1.514433639592011E-01      74
W          6.392026493862800E+00 3.229534839521356E+00 9.531008786387854E+00 -7.150910675402038E-01 -9.722331494440999E-01 8.302792809313983E-02      74
W          7.949461444193837E+00 4.758613257661502E+00 1.112671400967574E+01 1.512748141919073E-01 5.957397030080984E-01 2.786400802268943E-03      74
W          6.342676600049912E+00 6.338164159701271E+00 2.348035181414647E-02 1.576562438255566E-01 5.686641086245411E-01 -3.580219707784938E-01      74
W          7.956915534769759E+00 7.947256214023457E+00 1.610199644407761E+00 -2.313737213944743E-01 4.379671114013424E-02 -9.580813608595659E-02      74
W          6.322516878492324E+00 6.361497541504061E+00 3.195442846887329E+00 6.535317137698234E-01 -1.998610032261062E-02 -2.117707411840415E-01      74
W          7.944137623782507E+00 7.934161483011728E+00 4.777969539157014E+00 -1.061943696100632E-01 3.694777907913557E-01 -1.142152893217361E-01      74
W          6.352484090807661E+00 6.364639051746782E+00 6.345894400298526E+00 1.882761162684946E-01 -3.460819459245858E-02 1.293809629668404E-01      74
W          7.979858206542361E+00 7.978411856430613E+00 7.933405652953330E+00 -4.331926378783487E-01 -4.654542858505902E-01 3.339981136083333E-01      74
W          6.388246243570729E+00 6.337863389678033E+00 9.512346124945935E+00 -1.742066319732236E-01 5.633731651964404E-01 4.343169925310943E-01      74
W          7.960560725051395E+00 7.938588963353804E+00 1.116551553267364E+01 -2.947931745565353E-01 -3.071685423377702E-01 -7.104274671561771E-01      74
W          6.380665512985023E+00 9.546958877620197E+00 -8.280100639739788E-04 -6.029195876330083E-01 -2.432789629328822E-01 2.095470675388610E-01      74
W          7.934165743012056E+00 1.114822783133795E+01 1.573505331572673E+00 3.568475471696374E-01 -3.870978643834754E-01 1.044649800451516E-01      74
W          6.346769580366145E+00 9.531469186423427E+00 3.203255557490957E+00 2.009841840473592E-01 4.661424072210908E-02 -5.250936162705092E-01      74
W          7.965424915427213E+00 1.111595237884427E+01 4.763779028060622E+00 -6.281006727202323E-01 3.764846893514383E-01 -1.074014454209403E-01      74
W          6.352121320779633E+00 9.528477326192270E+00 6.340659279894049E+00 -1.201982729483560E-01 5.072797831574978E-01 2.882978711441185E-01      74
W          7.976848186309802E+00 1.114698521124194E+01 7.934167013012154E+00 -6.522613939172395E-01 1.494210697727435E-02 2.121279999939513E-01      74
W          6.354133750935119E+00 9.554705288218702E+00 9.553313878111197E+00 2.255395934616709E-01 -4.176104464995738E-01 -3.278008891618414E-01      74
W          7.938477323345178E+00 1.108325802631823E+01 1.109702682738204E+01 2.586777175185305E-01 9.269628441174289E-01 5.736937169917711E-01      74
W          9.548083397707082E+00 -3.140240242622248E-03 -1.179571091136400E-02 4.632432999502224E-02 -1.582284532244847E-01 2.478630599477201E-01      74
W          1.118221138396360E+01 1.629767625919629E+00 1.561965270681061E+00 -8.940173021058343E-01 -4.462060087522800E-01 5.061806441154252E-01      74
W          9.535755766754617E+00 -1.712180132287010E-03 3.211759078147959E+00 1.020107592273682E-01 2.369962021443037E-01 -8.646795550832531E-01      74
W          1.112845782981047E+01 1.616882214924072E+00 4.784376019651994E+00 -1.818578364229873E-01 -2.988186505076684E-01 -3.832644577579642E-01      74
W          9.523971025844101E+00 -8.708600672846696E-04 6.348229540478946E+00 2.442412001414412E-01 2.146645953383718E-01 2.886656317715388E-01      74
W          1.113199017008339E+01 1.577392061872971E+00 7.921013401995875E+00 -9.815522857777041E-02 3.803066851348093E-01 5.457154292907193E-01      74
W          9.557144978407196E+00 2.637104203748790E-02 9.560879628695746E+00 -1.517371417769843E-01 -4.506773120169160E-01 -2.789712193660491E-01      74
W          1.112298074938730E+01 1.605182014020087E+00 1.114066202075340E+01 3.292957410775372E-01 -1.675309364835532E-01 -7.053285271828097E-02      74
W          9.486098022917947E+00 3.189713626444677E+00 2.356530182070990E-03 1.285717748562076E+00 1.456683073873480E-01 1.619176184238434E-01      74
W          1.113299685016117E+01 4.804471531204620E+00 1.637501146517138E+00 -7.596592578003203E-02 -5.729798868361485E-01 -6.149212923948904E-01      74
W          9.515788765211921E+00 3.194389746805964E+00 3.193554566741437E+00 5.172183383257795E-01 -9.683794761331771E-02 -4.491477864667514E-01      74
W          1.113101556000809E+01 4.777966129156749E+00 4.786284419799441E+00 3.206660207720752E-02 2.327518908920570E-03 -1.561318456516204E-01      74
W          9.529728716288956E+00 3.191400866575037E+00 6.331583699192849E+00 2.794235953432183E-01 -1.297094448372776E-01 5.496337635552209E-01      74
W          1.113017325994301E+01 4.754888687373734E+00 7.954134084554857E+00 5.020123932136974E-02 2.259245506491978E-01 -1.000725651634911E-01      74
W          9.519083345466468E+00 3.197074307013380E+00 9.565399509044964E+00 6.212877229025733E-01 -2.663746278995150E-01 -5.108949975212681E-01      74
W          1.114227009087764E+01 4.778031189161777E+00 1.112790493976776E+01 -1.075756881425986E-01 -1.617485691887960E-01 2.956553733109642E-01      74
W          9.558291718495797E+00 6.359168151324088E+00 -1.294250099996766E-02 -2.444665262577216E-01 -2.527557524448640E-01 2.876245699967228E-01      74
W          1.112699707969761E+01 7.925654592354465E+00 1.546914999518242E+00 1.687564225538286E-01 4.710321422149445E-01 9.618937842550687E-01      74
W          9.539609697052381E+00 6.387759953533156E+00 3.196287226952568E+00 3.806125136837144E-02 -2.791761851641456E-01 -2.077949137315291E-01      74
W          1.111072062844006E+01 7.960221415025178E+00 4.820239212422867E+00 3.912503325525342E-01 -2.684360934912324E-02 -9.919143991784699E-01      74
W          9.534314716643280E+00 6.362176951556553E+00 6.383597033211520E+00 3.355351084758287E-01 1.777625391677711E-01 -2.204329678364484E-01      74
W          1.115314631171796E+01 7.998135507954510E+00 7.907801760975113E+00 -2.661021945385221E-01 -6.875766420183066E-01 8.392196059614818E-01      74
W          9.566364319119508E+00 6.347503470422847E+00 9.534996966695994E+00 -1.471468829495919E-01 3.850141171016173E-01 -2.091239609339043E-02      74
W          1.116730123281160E+01 7.925188242318434E+00 1.114002963070454E+01 -3.304972325232061E-01 3.019669879603705E-01 -3.249759995246481E-01      74
W          9.526072746006484E+00 9.493766683510446E+00 -2.701225208702928E-02 3.713894843394601E-01 7.151607293316591E-01 5.706235575620998E-01      74
W          1.113384095022639E+01 1.113059074997527E+01 1.605227534023604E+00 -1.702940295756208E-01 1.480895073188096E-02 -2.424184329208716E-01      74
W          9.557542688437927E+00 9.558226608490767E+00 3.189234606407666E+00 -3.046058898404098E-01 -3.391813487563310E-01 -3.833786397060445E-01      74
W          1.113266002013514E+01 1.115118342156631E+01 4.755964697456869E+00 5.340235974504189E-02 -1.856818712615145E-01 3.333252187674029E-01      74
W          9.498588693883006E+00 9.595600141378334E+00 6.328887148984506E+00 7.309972372060287E-01 -7.364236831268158E-01 5.362774379429565E-01      74
W          1.112584991960898E+01 1.113840652057913E+01 7.949712724213253E+00 4.131456358605901E-02 1.683042832146907E-02 6.638979227305612E-02      74
W          9.509778884747584E+00 9.520563175580804E+00 9.544418767423942E+00 7.870688541911625E-01 2.734905662855064E-01 -1.996976678110823E-01      74
W          1.114741091127484E+01 1.110419087793555E+01 1.115750585205479E+01 -2.048922479864559E-01 3.067266055633351E-01 -3.629522692346402E-01      74
128
config_type=md_bulk energy=-1.429171565752418E+03 Lattice="1.272199597962937E+01  0.000000000000000E+00  0.000000000000000E+00  0.000000000000000E+00  1.272199597962937E+01  0.000000000000000E+00  0.000000000000000E+00  0.000000000000000E+00  1.272199597962937E+01" Properties=species:S:1:pos:R:3:force:R:3:Z:I:1
W          4.481251346231877E-02 -2.754058212784928E-02 4.877197376823587E-02 -8.004250575625333E-01 2.831954972999540E-01 -5.730000837015555E-01      74
W          1.611115274478505E+00 1.620197425180213E+00 1.574536481652342E+00 -1.623292292683133E-01 -8.621213642680045E-01 3.985818489403833E-01      74
W         -7.402545571937849E-02 1.877786145082115E-02 3.241100840414972E+00 1.375615440371492E+00 -2.299995689774082E-01 -1.050530219812433E+00      74
W          1.561359300634243E+00 1.555912950213445E+00 4.760937317841065E+00 6.690882150237748E-01 -3.203093405783504E-02 4.597580933578552E-01      74
W         -1.852882143157974E-02 3.868658298901517E-02 6.373987412469059E+00 2.160250950597236E-01 -7.892254973541324E-01 -1.634658468230289E-02      74
W          1.606414594115319E+00 1.615784204839237E+00 8.002239488271591E+00 -8.647543540345374E-01 -4.822842194791365E-01 -9.432306056562316E-01      74
W         -1.022637079011314E-02 -9.352190722571955E-03 9.531029836389482E+00 -2.225827168519337E-01 4.796028361076118E-02 3.799426629311408E-01      74
W          1.589056092774161E+00 1.550820759820011E+00 1.112013828916769E+01 -2.984263493941812E-01 8.376482216051938E-01 2.624239204581034E-01      74
W          4.031666311495895E-02 3.205685377678691E+00 -1.253137096820280E-02 -7.695832955465616E-01 -1.840510060238175E-01 1.050412754803260E-01      74
W          1.602627263822701E+00 4.733710295737441E+00 1.593550933121443E+00 -1.563869702852711E-01 5.015698701828963E-01 2.832728460287454E-01      74
W          3.197443247041885E-02 3.157746323974809E+00 3.214405988352466E+00 -6.187082327910456E-01 5.411172846579259E-01 -5.455923896715719E-01      74
W          1.539852688972592E+00 4.730134635461178E+00 4.803300441114138E+00 1.124669376690138E+00 2.509931311927851E-01 -5.808801316086677E-01      74
W          2.637385203770501E-02 3.143559122878673E+00 6.329030938995618E+00 -5.852000288880324E-01 6.156932777189875E-01 8.774680255061369E-01      74
W          1.581263692172102E+00 4.779187849251143E+00 7.943497793733073E+00 3.100856548311986E-02 -1.726953137127443E-01 2.133435036772122E-01      74
W         -3.893382300811752E-02 3.179426005649831E+00 9.547360567651232E+00 3.543290642741744E-01 -1.348490521159936E-01 -1.496013790820255E-01      74
W          1.594363733184242E+00 4.823803552698256E+00 1.109176907697582E+01 1.596558158617257E-01 -9.906046750703201E-01 5.434192995174413E-01      74
W          6.316585488034053E-02 6.336622649582170E+00 3.379227261086939E-02 -6.298375049502056E-01 2.194121006969963E-01 -5.593737301903409E-01      74
W          1.597859223454311E+00 7.962929875234440E+00 1.552669889962879E+00 -1.095655238537936E-01 -6.098900202119601E-01 6.951250861242843E-01      74
W          2.833499218922725E-02 6.358546841276084E+00 3.196653366980857E+00 -4.816843578290522E-01 1.727296497738402E-01 1.412143012438347E-01      74
W          1.599414163574450E+00 7.915710851586189E+00 4.797079360633483E+00 -4.078924504244703E-01 5.399311568638303E-01 -5.647237765267954E-01      74
W          6.581770508522862E-02 6.335042989460121E+00 6.365367421803057E+00 -1.192421819391573E+00 3.834186148343214E-01 2.783371758382703E-01      74
W          1.588323922717592E+00 7.931103492775460E+00 7.954670994596340E+00 4.633907194406824E-01 3.020160253349606E-01 1.054102914771218E-01      74
W          2.664019205828306E-02 6.345628700277999E+00 9.571351859504855E+00 -1.423890465276761E-01 4.051365757014785E-01 -8.285892712791951E-01      74
W          1.658164908113669E+00 7.974220896106810E+00 1.107698424583351E+01 -8.897108902887552E-01 -3.305022964549380E-01 8.335629119794248E-01      74
W          1.084670083804128E-03 9.500995454068955E+00 5.020017387858193E-02 1.885255712018784E-01 4.079556559548081E-01 -1.107484359385981E+00      74
W          1.603526683892192E+00 1.106583712497225E+01 1.589693472823406E+00 -4.820542120268959E-01 1.327420574899953E+00 2.346625615071195E-01      74
W          1.240601095851719E-02 9.553825438150723E+00 3.159801964133632E+00 -4.102818432580342E-01 -5.322358833896892E-01 6.287087890065486E-01      74
W          1.603285053873523E+00 1.109200968699441E+01 4.834446963520590E+00 -2.823467245406126E-01 7.210677239511604E-01 -9.785298292496040E-01      74
W         -2.735954211386172E-02 9.556665698370169E+00 6.332503809263939E+00 3.793230840816277E-01 3.140960085143404E-02 4.854382163627537E-01      74
W          1.604911423999181E+00 1.112405752947050E+01 7.920759861976286E+00 -5.167168886186856E-01 -3.592509479803197E-02 6.538186813399671E-01      74
W          1.473291113829890E-02 9.548620237748555E+00 9.548488967738415E+00 -6.981455183342987E-02 -1.122905364971967E-01 -1.619677565522540E-01      74
W          1.602581513819167E+00 1.118137555389902E+01 1.112853435981639E+01 -1.591999556150526E-01 -1.196427104452260E+00 2.127449993079119E-03      74
W          3.148700193275884E+00 -2.753127212712997E-02 1.830391141420267E-02 6.883144550106660E-01 3.817892042846037E-01 -3.001627273919443E-01      74
W          4.772968638770632E+00 1.615277454800085E+00 1.615475114815356E+00 2.505931119471059E-01 -4.198887371589022E-01 -6.310609960188726E-01      74
W          3.180926675765776E+00 1.087632084032979E-02 3.174270875251534E+00 -4.782686037815632E-01 -4.923434268012078E-01 1.572983238737649E-01      74
W          4.770091698548354E+00 1.553391590018639E+00 4.808607871524202E+00 -2.869847266995601E-02 7.299519555316417E-01 -4.581842057143092E-01      74
W          3.184547036045493E+00 -1.005127077658450E-02 6.414420245592993E+00 -1.234474187362738E-01 1.120672122346009E-02 -8.655906182497244E-01      74
W          4.760696447822454E+00 1.635523716364358E+00 7.960814445070996E+00 4.888251888414808E-01 -3.353390665831100E-01 1.779741090949828E-01      74
W          3.111181470377100E+00 9.124160704953829E-03 9.501019504070815E+00 1.274460337679941E+00 -1.899921464049772E-01 1.002200628606909E+00      74
W          4.758948367687394E+00 1.549579849724135E+00 1.117339305328227E+01 9.387443107165727E-02 8.481703968658316E-01 -7.041362747981449E-01      74
W          3.133734602119608E+00 3.213115768252781E+00 -7.802040602803761E-03 1.051359166968535E+00 -7.524025811087603E-01 -2.023502068316873E-01      74
W          4.748126046851237E+00 4.769421508496573E+00 1.606647294133298E+00 -5.341274775852788E-02 -4.559246971219337E-01 -2.510762693291218E-01      74
W          3.207933657852398E+00 3.089112378671991E+00 3.184793016064499E+00 -5.331026746441194E-01 1.410325991640693E+00 2.585835162951122E-01      74
W          4.715541834333704E+00 4.817473432209177E+00 4.726821055205163E+00 5.590425479375041E-01 -1.301425198660405E+00 8.425536983619308E-01      74
W          3.154607743732314E+00 3.153695833661858E+00 6.398480614361461E+00 4.287022274684335E-01 3.809667471530441E-01 -9.172404366133565E-01      74
W          4.707629213722357E+00 4.768750698444745E+00 7.920126191927327E+00 1.151331710925635E+00 -3.480208980734689E-02 1.164894324355997E-01      74
W          3.133573952107195E+00 3.166173404625904E+00 9.511971884917021E+00 8.657819633279120E-01 2.401778838035933E-01 8.582116647363363E-01      74
W          4.795224900490203E+00 4.736963255988773E+00 1.110475905797945E+01 -3.521060885407052E-01 3.396679113547415E-01 3.677714394082872E-01      74
W          3.173546515195568E+00 6.332966799299711E+00 3.911500302211590E-03 3.118287772114744E-01 2.633343274274976E-01 -2.372537322054837E-02      74
W          4.735161575849571E+00 7.897277900162015E+00 1.666202648734683E+00 3.231018599588742E-01 9.197106081444800E-01 -1.401733092033316E+00      74
W          3.152706123585391E+00 6.334909199449785E+00 3.176155185397120E+00 -2.870483914554063E-01 6.065333194982336E-02 1.560847742243011E-01      74
W          4.705759353577887E+00 7.943646703744577E+00 4.735312025861195E+00 6.335770638586067E-01 3.527733423318909E-01 7.469023202079008E-01      74
W          3.210395338042593E+00 6.379174572869831E+00 6.357137781167217E+00 -5.626598539364343E-01 -5.181454542877869E-01 2.597024306752601E-01      74
W          4.866066575963595E+00 7.930754372748485E+00 7.943133823704952E+00 -1.130993030739528E+00 2.422004413551502E-01 1.050415513673900E-01      74
W          3.252750401315044E+00 6.331623529195927E+00 9.578113730027292E+00 -7.885250897830979E-01 4.155995567472610E-01 -9.177103634357809E-01      74
W          4.745013426610749E+00 7.925312482328033E+00 1.115361430175412E+01 1.146986061454286E+00 6.885675819723808E-02 -4.174885685953666E-02      74
W          3.186252776177283E+00 9.521905715684532E+00 -1.274217098448970E-02 2.843544826699012E-01 2.148461790903181E-01 6.002406244526440E-02      74
W          4.754253377324648E+00 1.112040252918810E+01 1.607695574214291E+00 1.901234123520618E-01 -5.682106768062595E-03 -7.427040419447813E-01      74
W          3.124129331377481E+00 9.566164469104065E+00 3.159385384101446E+00 6.761668050095132E-01 -7.355640095376103E-01 5.574369079669368E-01      74
W          4.743786746515974E+00 1.112374640944646E+01 4.688109892214249E+00 3.065690434007232E-01 1.058502668930075E-01 1.734976753923108E+00      74
W          3.173169445166434E+00 9.512390104949333E+00 6.392889443929472E+00 2.475465768058549E-01 3.410510874927791E-01 -3.721811657819509E-01      74
W          4.738123986078453E+00 1.114268766090991E+01 8.028554820304775E+00 9.059120012308078E-01 -6.574470794327264E-02 -1.630251355904702E+00      74
W          3.235191589958410E+00 9.502747124204294E+00 9.542976647312519E+00 -7.902750091157049E-01 4.426796523081755E-01 -1.728267343109003E-01      74