# Converted from POSCAR to lammps format

2 atoms
1 atom types

0.000000    3.187414   xlo xhi
0.000000    3.187414   ylo yhi
0.000000    3.187414   zlo zhi

  0.000000    0.000000    0.000000   xy xz yz

Atoms

   1  1     0.000000 0.000000 0.000000
   2  1     1.593707 1.593707 1.593707
