# Converted from POSCAR to lammps format

54 atoms
1 atom types

0.000000    9.510947   xlo xhi
0.000000    9.510947   ylo yhi
0.000000    9.510947   zlo zhi

  0.000000    0.000000    0.000000   xy xz yz

Atoms

   1  1     0.000000 0.000000 0.000000
   2  1     0.000000 0.000000 3.170312
   3  1     0.000000 0.000000 6.340635
   4  1     9.510947 3.170312 0.000000
   5  1     9.510947 3.170312 3.170312
   6  1     9.510947 3.170312 6.340635
   7  1     9.510947 6.340635 0.000000
   8  1     9.510947 6.340635 3.170312
   9  1     9.510947 6.340635 6.340635
  10  1     3.170312 0.000000 0.000000
  11  1     3.170312 0.000000 3.170312
  12  1     3.170312 0.000000 6.340635
  13  1     3.170312 3.170312 0.000000
  14  1     3.170312 3.170312 3.170312
  15  1     3.170312 3.170312 6.340635
  16  1     3.170312 6.340635 0.000000
  17  1     3.170312 6.340635 3.170312
  18  1     3.170312 6.340635 6.340635
  19  1     6.340635 0.000000 0.000000
  20  1     6.340635 0.000000 3.170312
  21  1     6.340635 0.000000 6.340635
  22  1     6.340635 3.170312 0.000000
  23  1     6.340635 3.170312 3.170312
  24  1     6.340635 3.170312 6.340635
  25  1     6.340635 6.340635 0.000000
  26  1     6.340635 6.340635 3.170312
  27  1     6.340635 6.340635 6.340635
  28  1     1.585161 1.585161 1.585161
  29  1     1.585161 1.585161 4.755473
  30  1     1.585161 1.585161 7.925786
  31  1     1.585161 4.755474 1.585161
  32  1     1.585161 4.755474 4.755473
  33  1     1.585161 4.755474 7.925786
  34  1     1.585161 7.925786 1.585161
  35  1     1.585161 7.925786 4.755473
  36  1     1.585161 7.925786 7.925786
  37  1     4.755474 1.585161 1.585161
  38  1     4.755474 1.585161 4.755473
  39  1     4.755474 1.585161 7.925786
  40  1     4.755474 4.755474 1.585161
  41  1     4.755474 4.755474 4.755473
  42  1     4.755474 4.755474 7.925786
  43  1     4.755474 7.925786 1.585161
  44  1     4.755474 7.925786 4.755473
  45  1     4.755474 7.925786 7.925786
  46  1     7.925786 1.585161 1.585161
  47  1     7.925786 1.585161 4.755473
  48  1     7.925786 1.585161 7.925786
  49  1     7.925786 4.755474 1.585161
  50  1     7.925786 4.755474 4.755473
  51  1     7.925786 4.755474 7.925786
  52  1     7.925786 7.925786 1.585161
  53  1     7.925786 7.925786 4.755473
  54  1     7.925786 7.925786 7.925786
